     300
 i =        1, E =     -3450.4476030564
 Si         0.0279842500       -0.0222683236       -0.0339614586
 Si         0.3738991535        0.0627875572       -0.3109067015
 Si        -1.4583726186        0.1456275063        1.0013061027
 Si         0.0655511858       -0.0291948923        0.1428597083
 Si         0.0113321827        0.0085060973        0.0289434120
 Si         1.5871835581        4.2719853449       -3.6199641240
 Si        -0.0893484873       -0.0169103287       -0.0249914752
 Si         0.3433803771        7.2469719860       -9.0305548176
 Si        -1.4872761492       -0.1552621821        0.3014105093
 Si        -2.9927223056        1.8271441477        3.7344914472
 Si         1.0995169562        0.1743491012        0.7806165191
 Si        -0.1413915462       -0.1567459844        0.0378859806
 Si        -0.8546490094        1.0212145083        1.4357609115
 Si         0.2328228554        0.2456071680       -0.1775312906
 Si        -1.9126458014       -0.0222599160        2.1155699223
 Si         0.8831389026        0.4932350532        0.2027870236
 Si         0.0501841451        0.1471784643       -0.2705001650
 Si        -0.0386392430       -0.0434861396       -0.0382463269
 Si         0.0334806930        0.1025099145       -0.0718098220
 Si        -1.8444653889        0.2088538247       -0.8671048648
 Si         0.2949556920        0.2717194935        0.0067552929
 Si        -1.5655230668        6.2315995160        2.2466326435
 Si        -0.1645674295        0.3160763204        0.0367319742
 Si        -0.0252980380        0.0814931769        0.0224430784
 Si        -0.2486286584       -0.1889137482       -0.0094017215
 Si         0.4781696557       -5.2395975963        2.3102157582
 Si         2.7862913297       -2.1324404268       -3.7710097591
 Si         3.2923633917       -0.7717949480        0.5781217668
 Si        -5.3702098410       -0.5491868368       -1.3694009104
 Si        -4.3968473005       -3.2788854534        6.0541102493
 Si         0.0295085510       -0.0552840742       -0.0340829456
 Si        -0.0329650449       -0.0313917650       -0.0834211920
 Si         0.2501056133        0.1867922145        0.2576650717
 Si        -0.4550268041        3.1326133837        0.3118154386
 Si        -0.0067822456        0.0074426188        0.1595548066
 Si        -0.0128206615        0.1515276698        0.0335447739
 Si         0.2265933303        0.4248084765       -0.3699122244
 Si         0.0052260609       -0.0021771688        0.0432408103
 Si        -0.0764107626        0.2247874957       -0.1498308936
 Si        -0.9574928677       -2.0955469655        0.2391297671
 Si         1.3423735095       -0.8692703588       -2.9758404319
 Si         2.2547024793       -0.7695434525       -0.4790842343
 Si        -1.8905740724        5.3632600633        3.0338737967
 Si        -6.4108066998       -7.6948067789       -0.8215287495
 Si         0.2594171504       -1.5313157193       -0.8614901925
 Si         0.4040664902        1.0799364926       -0.3420506298
 Si         2.6479844587       -0.6311713951        6.0049862254
 Si        -0.1397741443       -0.0635035685       -0.0139136531
 Si         1.7373203208        0.0998333207        0.6745291243
 Si         0.9077051526       -0.4298532612        0.1747094606
 Si         0.2630877754       -0.3046812477       -0.3674212496
 Si         0.7554249674       -0.9523343676        0.1346908821
 Si        -0.2725313264        0.3562911617       -0.5422186090
 Si        -0.9114544272        0.3841096287        0.2823164332
 Si         0.0571758369        0.0678995185       -0.5947776166
 Si        -0.0144841829        0.0362785443       -0.0457216307
 Si         0.1920328908        0.1339850217        0.0833484865
 Si         7.4318676373       -6.1518850218       11.6191985831
 Si        -0.4592143131        5.2685705820       -2.2511317328
 Si        -0.1512352317        0.0886151747       -0.0319552044
 Si        -0.0218754363        0.0229365328        0.0694838887
 Si         2.9517154986       -1.5704095396        2.4890408169
 Si        -0.0655866162        0.0646898097        0.0178482960
 Si         1.5545377922        1.0915658124        0.6625551618
 Si        -1.8641006620        0.4932051929       -1.5805847490
 Si         0.0485394313       -0.0234569588        0.0070182612
 Si        -0.3876514657        0.1749445260       -0.0530036490
 Si         0.2486460194       -0.7295283020        0.3226943994
 Si        -0.0118549451        0.0164610603        0.0071794258
 Si        -0.2812561595        0.2576209209        0.3843925205
 Si         0.8518008306        3.1671774961        1.4709849855
 Si        -0.0023328166       -0.0214981306       -0.0131309424
 Si         0.1205396750        0.0831136838       -0.0830815966
 Si        -0.0645111742       -0.0680235438       -0.0106976055
 Si        -2.4113603247        1.0984876970       -0.2470949531
 Si        -0.4530270745       -0.7254663915       -0.4412679973
 Si         1.3694687275        1.5515873609       -1.1017609241
 Si         0.4699893614        2.3158170247       -0.6373687537
 Si        -0.1655301187        2.1932287692        9.5127349487
 Si         1.4542451267       -6.9667659385       -1.9933575705
 Si        -7.6703513411        4.1502926944       -1.9634264231
 Si         1.6112394099       -2.0685228774        0.5972355293
 Si        -0.1166807949        0.4233618256       -0.8945009634
 Si         0.0803960422       -0.9532967796        0.1015959615
 Si        -4.7899778221        3.0543625068       -4.2388038858
 Si       -23.7342577882       -3.0238094066        3.1459946425
 Si        -0.0716371406       -0.0757703908        0.0498427594
 Si         0.4883606144       -1.5059361129       -0.9848808180
 Si        -1.8795069049        0.7724210597        0.4274892139
 Si        -0.2049419244       -0.0450234999       -0.0313642962
 Si        -0.3031958250       -0.8298507134       -0.0688041782
 Si         1.5552208930       -1.6712927551        3.0548604713
 Si        -2.4684425260       -2.6755836681       -3.7875586514
 Si        -1.8665271481       -0.3701424207        0.1382846979
 Si         1.2377322812       -0.6349301353        1.5028623618
 Si         0.0406961000        0.0666251480        0.0791869879
 Si        -2.2074383197        0.5386162368        0.5735458502
 Si         0.0032500345       -0.0545756862        0.0022237265
 Si         1.1870225746       -1.2270704239       -0.3923475317
 Si        -0.2114212881       -0.4072427173       -0.1095264669
  O        -0.7182288369        0.3966799143       -0.1545707034
  O         0.2599395340       -0.4020523140       -0.2726692191
  O        -0.0752949632       -0.0383090567        0.0336590078
  O         0.0370707624       -0.0081991689        0.0254071865
  O         0.0089880497        0.0670114205       -0.0520794305
  O        -0.0100167341        0.0120746391        0.0115436875
  O         0.0088854348        0.0061787919        0.0335511175
  O         0.1527778447        0.0869408636       -0.8618935366
  O         0.2378422626        0.3778461112       -0.0243311932
  O        -0.2186511235        0.3372045460       -0.2344256010
  O         0.0042647276        0.0420075376        0.0665016579
  O         0.0326236297       -0.0148552893       -0.1693007991
  O         0.0198064646       -0.0066479908       -0.0095799920
  O        -0.0474549772        0.0683060127       -0.0440364192
  O        -0.0935510089        0.5890030252       -0.7952507714
  O        -0.9159195467       -0.1573968475       -0.2474009151
  O         0.0432804668        0.0784328220       -0.0294112232
  O         0.9056386938        0.1395050167       -0.4215529030
  O         0.0710058167       -3.5953343381       -8.0767780112
  O        -0.0320947357        0.0439479613        0.0502610042
  O         1.9214560438       -1.0072101923       -0.4342258155
  O        -0.0437008675        0.0439389031       -0.0442893921
  O        -0.0291802088        0.0281163927       -0.0208009638
  O        -1.1805943946        0.6140393150       -1.3696720843
  O        -0.0113163708        0.0499709559       -0.0178506009
  O        -0.0528066614        0.4009187926       -0.1800599353
  O        -0.3119437198        0.5430344635        0.1674529711
  O         0.0344742100       -0.0454989220        0.0755846114
  O        -0.0452580454       -0.0100138843        0.0453558038
  O        -0.0568798373       -0.1401726446       -0.1279988250
  O        -0.0214052206       -0.0581469874        0.0294764100
  O        -0.1383972227        0.0464923903        0.0447240526
  O         0.0131717095        0.0257354814       -0.0595132698
  O         0.0681290320       -0.2023793389       -0.0712931336
  O         0.0141692626        0.0206585942       -0.0899690245
  O         0.0238756766        0.0067471303       -0.0103049303
  O         0.2793364098       -0.5467722496       -0.1061442081
  O         1.0650835878       -0.0879433139       -1.3727053107
  O         0.0152554987       -0.0387056522       -0.0043763735
  O        -0.0071213883        0.0320593224       -0.0112747065
  O        -0.0195057780       -0.0095076872       -0.0298352622
  O         0.0365676386        0.0209133992        0.0330845080
  O         0.0021640751       -0.0530154920        0.0364242769
  O         0.8740021438       -0.2598537818       -0.3970983225
  O         0.1020036937       -0.0197773875        0.0403296508
  O        -0.0172815596        0.0194450231        0.0127893337
  O         0.0227871804       -0.0942373299        0.0744859479
  O        -0.0486725185       -0.0583056878        0.0033969917
  O         0.0857949161        0.0092381551       -0.0528114831
  O         1.2747476768       -0.8975503794       -0.9074571385
  O        -1.6922413461       -4.3543313012        3.4471889463
  O         0.0880265843        0.0790284394       -0.1566863823
  O        -0.1974577394       -0.8081692783        0.8518316906
  O        -0.2395195627       -0.3837866608        0.2668509006
  O        -2.2178959596       -0.6715887098        0.6879833800
  O         0.3238079891       -0.4886182346        0.5765505960
  O        -3.6147398892       -3.6563585587       -1.5017256003
  O         0.4955758462       -0.1274209348        0.1814745909
  O        -0.2649069362        0.0527795492        1.1358581389
  O         0.0409210830       -0.0189996026        0.0379645094
  O        -1.7590773785        2.4745619356       -2.0247126620
  O         2.2118969774       -1.3260638747       -1.0324710093
  O         0.0855891289       -0.0230709750        0.1294812080
  O        -0.0078333252       -0.0515133497        0.0019292647
  O        -0.2453453004       -0.1413882326        0.0518898534
  O        -0.0236554443       -0.0436789545        0.0768544401
  O        -0.3424235661       -7.2198319189        8.9893540627
  O         6.3327762696        7.7614871938        0.9230723260
  O         0.3304138776       -1.8585958632       -1.0934597875
  O         0.0376677267        0.0158250974        0.0273775235
  O         0.0258496430       -0.0407148732       -0.0444335371
  O         0.0287446548       -0.0117777070        0.0043972414
  O         0.0390432021        0.0322791448       -0.0377346144
  O        -0.1356398098        0.5974798696        0.1800641911
  O        -0.0132952519        0.0393634743        0.0057734632
  O         3.3059806560       -5.8557723813       -2.9125089417
  O         0.0247299787       -0.0052293850       -0.0241987749
  O         0.3758422202       -0.0144564097       -0.1679255215
  O         9.6175874152        2.0105833469        1.8385089904
  O        -0.0951372174       -0.0658231696       -0.0991661521
  O        -0.2634526559        0.8908907513        0.1164241943
  O         0.0345775009       -0.0354391341       -0.0133251001
  O         0.0159509780       -0.0162286642       -0.0306663997
  O         0.1261557029        0.0820842493        0.1148984781
  O        -0.1611412052       -0.4608446583       -0.3264340975
  O         0.0508224940       -0.0529300868        0.1250873454
  O         0.0898281202       -0.0292057356       -0.0172572854
  O        -0.8120686264        2.9891373459       -0.6769773758
  O         0.0621454682        0.0214557753        0.0146342494
  O        -0.5327881060        0.4870223589       -0.0223210696
  O         2.4568343497       -1.2745830976        1.5479620936
  O         0.9581331339        1.9643739281       -0.5525838661
  O         0.0375653817        0.0487621440        0.1379177881
  O         0.0012133102        0.0169817869       -0.0392772361
  O        -0.0470800484        0.0947861601       -0.0744581895
  O         1.0547587755       -0.6329342714        0.9816333778
  O        -3.9960714336       -0.4972189884        3.6235008563
  O        -1.0412054353        0.2996688359       -1.4312457207
  O        -0.0567657067        0.0039923415        0.0096130826
  O        -1.8185491618       -2.6778380705       -1.5307090762
  O        -0.0325581300       -0.0553936689       -0.0301526052
  O         0.1281833861       -0.7175909037       -0.0114223221
  O         0.0342468988        0.0153702002        0.0348628022
  O        -0.0260886488       -0.0000288753       -0.1098230144
  O        -0.0100329067       -0.0071708579        0.0120366592
  O         0.0142369578       -0.0067671900        0.0189104797
  O        -0.0589480228       -0.0448764670       -0.0599911467
  O        -0.0178902995       -0.0147371678        0.0497075478
  O        -0.1644730174        0.8115456266       -0.2969330299
  O        -0.0445893768       -0.0242330340       -0.0228143659
  O        -0.8234122254        0.4607526575        1.2642808969
  O         0.0113452260       -0.0021813258       -0.0421680714
  O         1.0604547227       -0.8808595748       -2.6246460449
  O         0.0019966455        0.0249018745        0.1029800756
  O         0.0458186987       -0.2107271191       -0.0795523969
  O         4.5873312335        3.3566540404       -6.1731477167
  O         0.0457825790       -0.0207298152       -0.0349751527
  O         0.0234931530       -0.0101575926        0.0332391663
  O        -0.0491367587        0.0135512692       -0.0506408702
  O         0.3542054191       -0.2042226223        0.1852642018
  O        -0.0119069162       -0.0089971524        0.0030268934
  O         0.0367004123        0.0290847365        0.0796082754
  O        -0.3041747996        0.2815957191        0.1421016453
  O         0.0829306855        0.0670871468        0.0302445630
  O         0.0370460334        0.0272610978       -0.0390306467
  O        -0.0258471519        0.0453388123       -0.0379892014
  O        -0.0028364771        0.0033316092       -0.0038744265
  O         0.3617357836        0.7907942545        0.0605141365
  O         0.1149861004        4.6027759590        2.3838868747
  O        -0.2557837727       -0.0627639583       -0.7170505156
  O        -0.0422258463        0.3640073731        0.0156542431
  O        -0.1098154159        0.0281087778        0.0286979684
  O         0.4315116087       -3.1063451795       -0.3329184848
  O         0.0236605539       -0.0031525603       -0.0013250157
  O         0.0168639780       -0.3080358543        0.0461184019
  O        -1.3658457254        0.4695341549       -0.0841604884
  O         0.0391554347       -0.0151331601        0.0072073370
  O        -0.0314529499       -0.0865468564        0.1421406856
  O        -0.0349545469       -0.0447757897        0.0047595292
  O        -1.5008370143       -1.1176297006       -0.6318275078
  O         0.0620088252        0.0069723171        0.0218235537
  O         0.0174346548       -0.0616626362       -0.0646630310
  O         0.4307626551        0.1455271812        0.4299076018
  O         0.0090489649       -0.0474684031       -0.2004261717
  O        -0.7555311740        0.5200075171       -0.2272798431
  O        -0.0745724518        1.8383930855        1.0933461260
  O        -0.2369108223       -0.1202602023        0.3392759948
  O        -3.0704597659        0.6766083856       -5.6071131747
  O         0.0092577870       -0.0341815021        0.0392433116
  O        -0.7923348675        4.1148469551       -1.4887969449
  O         0.1229133460        0.5476039277        0.3377062382
  O        -0.0280794423        0.0253809383       -0.0780064979
  O         0.0217659511        0.0101660296        0.0420189572
  O        -0.0082925248        0.0566064758        0.0349221171
  O        -0.1763592004        0.5821213121        0.0597876126
  O        -0.0719102803        0.0333632213        0.0159888986
  O         7.6089074953       -4.1020986148        2.0477802179
  O        -2.1421402888        1.2852019125        0.8160613345
  O         0.1935614923       -0.3756620926       -0.4810677872
  O        -0.1725558952        0.3129982269        0.1368775386
  O        -0.2267761951       -0.8861971324        0.1887644852
  O         0.0160891423        0.0491344806       -0.0163349007
  O        -0.1318076562       -0.0004468055       -0.2097059280
  O         0.0181630074        0.0079162549        0.0259826944
  O         2.6042183224        3.0612189180        5.7724698155
  O        -0.1077839656        0.0396852756       -0.1255523003
  O        -0.1456919089       -0.0046120667       -0.2046311333
  O        -0.0481715071        0.1859638428        0.0426871964
  O         0.0661550522       -0.0622194717        0.0998252226
  O        -0.2409818816        0.6963798837       -1.2495069091
  O         0.1059132749       -0.0154076312        0.0426139645
  O        -0.0019799652       -0.0107429800       -0.0193972644
  O        -0.0093727052       -0.0101968444       -0.0095316839
  O        -0.0667411454       -0.0221047178       -0.0098165180
  O        -0.0679523570       -0.3972407036        0.3910845800
  O         0.0542636910        0.2073569505       -0.2389804711
  O         2.7767416258       -2.5284029147       -4.3928938232
  O         0.0206165877       -0.0049097449        0.0174585827
  O        -0.3726196553        0.5609834900        0.3988059804
  O        -0.0261988512        0.0328859832        0.0052323346
  O         0.0231226429       -0.0201897723       -0.0232198399
  O        -0.0097241735       -0.0109150838       -0.0017961910
  O        15.6020968292        4.3829297750      -16.1369881542
  O         0.0056093418       -0.0254262126       -0.0205643294
  O         0.2183137102        1.7632670024       -0.5711977772
  O         0.0113646473       -0.0125955127        0.0144146000
  O         0.1064855886        0.2520449009        0.1585756762
  O        -0.2821784122       -0.5687828536        0.7611210121
  O        -0.0354987601       -0.0135672164        0.0204024825
  O         1.4399434072        0.1373375966       -0.3043757592
  O         0.0108624661        0.0443609149       -0.0145384815
  O        -0.2103834359        0.4119084627        0.0413723099
  O         0.0137886661       -0.0236151259        0.0123719693
  O        -0.0661102671       -0.0899504814        0.0562747630
  O         0.4679320054       -2.6866267333        2.0477526789
  O        -0.0890962472       -0.0144334986       -0.0242423075
  O        -0.0918258287        0.1967955567        0.0121942440
  O        -0.0020591396        0.0829615189        0.0018937876
  O         3.0976365104        0.4009765566        5.8962810843
  O        -0.0958767109       -0.0290183683        0.0069461162
     300
 i =        2, E =     -3493.2711435262
 Si         0.0276408290       -0.0225812402       -0.0324737916
 Si         0.3263618198        0.0418405614       -0.2807264182
 Si        -1.1682803492        0.1246520981        0.8079777417
 Si         0.0462662192       -0.0281652418        0.1113766955
 Si         0.0134601119        0.0077429567        0.0273806344
 Si         1.3245372035        2.8061440232       -2.4129588468
 Si        -0.0819260757       -0.0152081198       -0.0222112848
 Si        -0.8557838398        4.1264105142       -5.7502163913
 Si        -1.1200497882       -0.0181653799        0.3068677169
 Si        -1.6854359199        0.9732243783        2.4853111724
 Si         0.7887467715        0.2331898061        0.6491852281
 Si        -0.1085840176       -0.1287042529        0.0344559670
 Si        -0.5750323786        0.7064062926        1.1185127698
 Si         0.1850444687        0.2099687060       -0.1643314252
 Si        -1.1998777924        0.2123031006        1.5682248971
 Si         0.6730161595        0.3117929049        0.1989103157
 Si         0.0569232928        0.1305954923       -0.2252091149
 Si        -0.0356635328       -0.0415129887       -0.0379157615
 Si         0.0173961282        0.0872185844       -0.0589438331
 Si        -1.5042748892        0.1697350279       -0.7664780393
 Si         0.2371456375        0.2077272164       -0.0088067519
 Si        -1.0875865359        3.7910715537        1.6583688898
 Si        -0.1361324932        0.2856783940        0.0340835591
 Si        -0.0239560874        0.0821117713        0.0267088451
 Si        -0.1964021454       -0.1519531476       -0.0038961437
 Si        -0.5752188228       -2.7498565884        1.2844332175
 Si         1.4967795868       -1.2449650342       -2.5210848096
 Si         2.3251941852       -0.5301322971        0.3581020125
 Si        -3.0854547484        0.0295994427       -1.3920477512
 Si        -3.0170248346       -2.0569324193        3.8327532324
 Si         0.0170971006       -0.0519628149       -0.0353721014
 Si        -0.0386091896       -0.0301250215       -0.0745660716
 Si         0.1986644826        0.1443731726        0.2174419224
 Si        -0.4151468905        2.2316672557        0.3475148055
 Si        -0.0127583655        0.0075906910        0.1295712158
 Si        -0.0300643167        0.1426393443        0.0411061528
 Si         0.1344633910        0.3083641226       -0.3522866689
 Si         0.0033613783        0.0002324667        0.0408006448
 Si        -0.0705932561        0.1807187130       -0.1240980997
 Si        -0.7001238302       -1.6164892555        0.1496731375
 Si         0.2227590921       -0.7720165409       -1.6074507021
 Si         1.6362688236       -0.4558941796       -0.2150057203
 Si        -1.0571191206        3.6599843768        1.8294333560
 Si        -0.9075372358       -3.6920230243       -1.2116642023
 Si         0.1848582941       -1.2415512529       -0.7039821108
 Si         0.3203051955        0.9072961969       -0.2843023490
 Si         1.7784570106       -0.8888445530        3.8602130734
 Si        -0.1202820750       -0.0519479716       -0.0234395622
 Si         1.2412953961        0.1907997082        0.4234606532
 Si         0.7380674988       -0.3588907764        0.1808529239
 Si         0.2116027431       -0.2640727042       -0.2709600048
 Si         0.6200129651       -0.7616966105        0.1874529006
 Si        -0.2012439229        0.3313105863       -0.4674813139
 Si        -0.7431003072        0.3427170401        0.1980024009
 Si         0.0333646569        0.0436808435       -0.4213891727
 Si        -0.0156780005        0.0324574025       -0.0416046524
 Si         0.1615446240        0.1112655173        0.0705983419
 Si         5.2759434724       -4.8954387740        8.4957684523
 Si         0.5993588150        2.7627705159       -1.2272031268
 Si        -0.1513635993        0.0816800686       -0.0329470641
 Si        -0.0167771881        0.0271778323        0.0627504371
 Si         2.0613190872       -1.0982455366        1.6951351017
 Si        -0.0583436575        0.0593690947        0.0219927699
 Si         1.1750982970        0.8829632139        0.4868104875
 Si        -1.1961236506        0.0780358959       -0.9376202988
 Si         0.0434532423       -0.0217177302        0.0066491027
 Si        -0.3258295924        0.1459677469       -0.0471047227
 Si         0.2707021385       -0.5752730764        0.2173206262
 Si        -0.0107360659        0.0106719728        0.0068266668
 Si        -0.2289612552        0.2125426884        0.2855513264
 Si         0.5774142850        2.4269413729        1.0748283988
 Si        -0.0014650666       -0.0205721191       -0.0113452215
 Si         0.1109872137        0.0796967141       -0.0778460188
 Si        -0.0696018362       -0.0647174527       -0.0136014760
 Si        -1.6063561644        0.8477337949       -0.0257252653
 Si        -0.3147374370       -0.5042400635       -0.4315773081
 Si         0.8518922807        1.1489410206       -0.9065636683
 Si         0.5278744156        1.8610779901       -0.4351387161
 Si         0.0215579668        1.3305009978        6.6059461675
 Si         1.0334167628       -4.5210547816       -1.4672740385
 Si        -4.8934845748        2.6464058290       -1.8617630674
 Si         1.1339579443       -1.6060010260        0.4377553638
 Si        -0.0987916771        0.3506257950       -0.6803926327
 Si         0.1524711121       -0.7721697925        0.0075676910
 Si        -3.2375987876        3.2510465568       -3.4681496602
 Si       -15.6330828542       -1.7445309015        1.8929437577
 Si        -0.0666551293       -0.0611146214        0.0598473570
 Si         0.2786138009       -1.3514879528       -0.6288168043
 Si        -1.4497967301        0.4901170847        0.2242015031
 Si        -0.1691051970       -0.0345215751       -0.0198176261
 Si        -0.2393333492       -0.6781204938       -0.0447954631
 Si         1.0090534766       -1.2312254384        2.3116162418
 Si        -1.6085299548       -1.8500305197       -2.8879038365
 Si        -1.3306625100       -0.4276921757        0.1956866275
 Si         0.8391374040       -0.5336091752        1.2176061587
 Si         0.0340993541        0.0610225542        0.0796280612
 Si        -1.5996450332        0.2567690455        0.2820079856
 Si         0.0046965717       -0.0560281134        0.0042987600
 Si         0.8664386241       -0.8573283796       -0.3015412458
 Si        -0.1646597401       -0.3412105323       -0.0807538804
  O        -0.5628674346        0.3266028061       -0.1651027992
  O         0.2092603230       -0.3227550181       -0.2130680843
  O        -0.0819153987       -0.0272620157        0.0380499176
  O         0.0416716232        0.0020749045        0.0364519913
  O         0.0041816473        0.0772380243       -0.0584165347
  O        -0.0088902698        0.0126962203        0.0067952461
  O         0.0108006324       -0.0025884966        0.0360990800
  O         0.1148509942       -0.2257376194       -0.6321081484
  O         0.2011033967        0.3306606693       -0.0321679441
  O        -0.1505107644        0.2802971910       -0.1760459453
  O        -0.0134124085        0.0459033893        0.0732022401
  O         0.0393828071       -0.0049006333       -0.1319179889
  O         0.0309915979       -0.0030551570       -0.0272369163
  O        -0.0435983329        0.0761319943       -0.0262840144
  O        -0.0606438018        0.5298192376       -0.6273482681
  O        -0.7659174988       -0.1429137622       -0.2577563837
  O         0.0337788256        0.0698988321       -0.0304637347
  O         0.7099338165        0.1218268267       -0.3794535763
  O        -0.0031822649       -2.4754759203       -5.5390150337
  O        -0.0193929756        0.0145500067        0.0458300188
  O         1.4546301940       -0.6839497932       -0.2212897673
  O        -0.0542531270        0.0421070423       -0.0458660112
  O        -0.0316194976        0.0288169129       -0.0205936300
  O        -0.8112922756        0.5248324009       -1.1211601352
  O        -0.0148404722        0.0459483047       -0.0176599181
  O        -0.0479075702        0.3572303707       -0.1717969158
  O        -0.1888273710        0.4038066648        0.1203945314
  O         0.0293016139       -0.0348454747        0.0867838198
  O        -0.0471588356       -0.0182316075        0.0437793320
  O        -0.0531108823       -0.1264577396       -0.1222956169
  O        -0.0164732655       -0.0655004132        0.0432555368
  O        -0.1323076641        0.0718402964        0.0294505097
  O         0.0282987525        0.0259534134       -0.0456214489
  O         0.0759928464       -0.1955062875       -0.0667126385
  O         0.0061616720        0.0249348589       -0.0767782647
  O         0.0258085083        0.0127051839       -0.0035820938
  O         0.1678105426       -0.4024664658       -0.0748126196
  O         0.8627260954       -0.0673164663       -1.1270576112
  O         0.0219051047       -0.0308948758       -0.0121099539
  O        -0.0113790615        0.0457756881       -0.0146868186
  O        -0.0113864003       -0.0053556652       -0.0341529556
  O         0.0310523045        0.0253070954        0.0274443865
  O         0.0113633727       -0.0487033118        0.0400888848
  O         0.7269148361       -0.2581645037       -0.2925782043
  O         0.0198694600        0.0185050173        0.0202593391
  O        -0.0223904702        0.0098673441        0.0079662671
  O         0.0172179100       -0.0824164451        0.0662773129
  O        -0.0705631412       -0.0479620321        0.0073252155
  O         0.0690565556        0.0063120390       -0.0104004979
  O         1.0337969576       -0.7451125060       -0.7622174864
  O        -1.4310126764       -2.8834119926        2.2410167409
  O         0.0671171203        0.0515237702       -0.1131905883
  O        -0.1085767028       -0.6868185359        0.7457207735
  O        -0.1440945214       -0.2631218999        0.2428995410
  O        -5.1262159937       -1.5853920541        1.2599684346
  O         0.2650317859       -0.4510448445        0.5021038655
  O        -2.8708201008       -1.1861751454       -0.4893167584
  O         0.3808310931       -0.1047537326        0.1354680396
  O        -0.2020683013        0.0283467296        0.9520198557
  O         0.0465846124       -0.0222560851        0.0355921279