     300
 i =        1, E =     -3450.4476030564
 Si         3.0674794852        1.9365672502        7.7640120684
 Si         6.0215293498        7.9511060594       10.0822947077
 Si        15.4499729766        5.1292426193        6.7226891363
 Si         5.0491470811        9.0878362336        5.2807505521
 Si         4.8979604721       15.5697389861       13.4374492457
 Si         7.3351690363       12.5131309310        1.8718072661
 Si         4.7379084265       14.0372171521        2.0876267645
 Si        12.2766371848        2.4594546532       12.5941416581
 Si         6.8523586138       13.5147029732        6.0022750116
 Si        15.7721289050       14.5823695698        7.7845136405
 Si         1.8561212646       11.2812291854       14.3943887966
 Si        14.3884819021        4.5871246710        4.5331547398
 Si         1.4933391397        4.1724830896        6.3672886836
 Si         4.1699848384        9.4172105159        3.6324883129
 Si        11.6317291613        4.5029672674       15.3865051156
 Si        15.1290862097        5.3435291303        9.2207702265
 Si         0.1793059330       10.2102651364        5.9882737226
 Si         2.8302130445        8.1731376096        9.6486582900
 Si         6.8989492779        2.4939049458        4.5788526463
 Si        16.1647389675        9.9694990036       16.1025819683
 Si         2.6693260991        4.9844149053       11.6976791461
 Si        15.9889768674        9.7653535346        7.6949727771
 Si         0.2582767943        0.0001786600        7.4930208505
 Si         8.6175146549        6.9779015218        6.4512064886
 Si         2.7238491437        8.4447724314        3.6645582664
 Si        14.2859597348       15.9381945434        9.3422980671
 Si        16.2545173669       14.2589958466        7.1849475396
 Si         7.3116118697       12.0485897745        9.8518877054
 Si        10.8966640499        1.6213948515       15.7758845990
 Si        13.6939477367        3.6399812612        2.6558928840
 Si         5.7067545117        8.4320440768       15.1353549170
 Si         0.6040388158        0.7079595625        5.7100606935
 Si         9.7277704311        3.4432944898        0.1383448069
 Si        14.3359263971       10.4699590306       11.3028120271
 Si        12.7638502548        3.5348795160        5.3123120541
 Si        11.5427554486       14.9913708152       13.5398359886
 Si        15.2277492805       15.1769125539        4.5696228190
 Si         6.2252735677        0.8544886825        7.5183434422
 Si        14.9365474298        6.8036311968        8.1870203941
 Si         1.2022358361        2.0718420778        4.4944096019
 Si         5.7048316238        5.1782746211        3.8414097259
 Si         0.6147782782        0.4362456698       13.5349589780
 Si        10.6931484778        2.2871879574        5.2571583777
 Si        13.4328362082       10.9663105624        5.1823561108
 Si        10.5956739392       15.2619014607        8.1299828250
 Si        10.8806827476        0.4715475911        8.0939087597
 Si        12.9008236438        4.3723804950       10.2085651951
 Si         5.4482118593        1.4179763699        5.4377730726
 Si         4.1112476006       12.3101583734       12.4063144933
 Si         5.9724790490        9.3433395489       12.2067434878
 Si         6.3022404630        4.2222242971        9.1135996605
 Si         3.7860389416        6.3840617976       16.1467606432
 Si         8.5933093621        2.8521076861       15.3151175964
 Si        15.5761355515        2.5322588209       13.0608013026
 Si         3.2815776662       12.7070480257       10.6257366733
 Si         9.6620216833        4.9583051310        4.5887720590
 Si         6.9093069850        2.7678535190        1.8421361954
 Si         0.8446417544        2.3444962089        0.6530820997
 Si        14.2187205949        0.3771359296        9.0173589315
 Si         0.4871222329        5.4177552517       12.3238659284
 Si         8.3905344551        5.0496251346        8.1257742293
 Si        15.8987879236        5.7646039719       15.2927537649
 Si         4.4682449479        9.1737639928       10.4856184743
 Si        10.5705770129        5.5622588166        6.9592261772
 Si        15.2571499233        6.0903202554       14.7417345687
 Si         8.5756429129        6.7062790483        0.0451781137
 Si        12.1149213236        3.3392800420        3.4681604144
 Si         7.7014649413       14.4370857027        4.0492349206
 Si         0.0550392966       10.5695879886        3.7718575445
 Si         5.5726547431        4.9848675014       10.3283647052
 Si        12.1882615486        8.6821090034        3.1627336398
 Si         4.6942429814        9.4342215009        7.7589462698
 Si         5.8000840621        3.8992041304       13.7325482114
 Si        11.5427693642        2.5711603350        9.3078537887
 Si         6.3624261280       12.2721097730        9.6961318862
 Si        14.0717309910        4.4532482059        9.1461420696
 Si        13.0643124962        5.2339023384       14.0860436429
 Si         1.1023099314       10.1118989655       16.2357536195
 Si        12.0242059309       10.2140433757        0.3947291589
 Si        16.1477017572        9.0974287296        7.4864682212
 Si        15.9133706279        8.5719435316       15.3098231264
 Si         1.7161925652        9.2536053010        0.2220747588
 Si         1.4332436032        4.5004493624        4.8943576952
 Si         1.4495990962       14.9912310811        7.7972089753
 Si         0.7881506206        3.3692875042        0.7312876969
 Si         0.2556006514        2.4443111393        0.2669970679
 Si         3.3177333253       12.7856479296       15.9687304419
 Si        12.3575731718        4.5220324935       14.6121009642
 Si        13.0148944997        1.8289824400        3.4274339560
 Si         5.1936948261        2.1531633188        1.3563627924
 Si        15.5775922908        5.9255150074        4.3427296603
 Si         8.4700578629        0.9546254168       14.4496166493
 Si         3.8287678635        3.0435582351       14.3311129027
 Si         2.9659154943       12.2756221327       11.9938610789
 Si        13.5916875246       13.8391038279        8.4807386612
 Si         0.0418446767        7.0133463747        9.9247612632
 Si        15.8563080549        0.7647226525       13.7848835099
 Si        12.3629877578        8.5026440487        6.9566108461
 Si         2.2827008488        3.3276827354        5.8765640958
 Si         1.6647502198        3.6930554465       11.2318635083
  O         4.9096746087        9.8806869394       12.0912451652
  O        14.0718113052       13.0205182370        7.5911773881
  O        10.5968800140        8.3871826136       15.4750221694
  O        11.8446552639       11.7300111120        3.5229559213
  O         0.4517696401        4.9433889888       10.0005204705
  O         6.6908037778       11.1087068877       16.2375461142
  O         4.3680912365       10.7191004138        1.7765508015
  O         0.9318097272       11.1577587641       13.7308646376
  O         4.0225750945        7.7313064783        0.0689189112
  O         6.6000430977       14.6883622429       10.2707929708
  O        13.5978261977        6.8731853426        6.4186602488
  O         7.9498377037        0.5881285600       12.0095484378
  O         5.3443837801       15.6492520528       15.8593335570
  O        12.7604471411        3.7209611482        0.0772169958
  O         3.8050519921        3.9157228846       13.5061918278
  O         5.2422516071       11.9490815079        9.3674812817
  O         4.0201387758       14.0849933315       16.1866719754
  O        12.5110060443       10.3147214894       14.4337346324
  O        12.0440965522       10.0048115163       16.0190408326
  O        12.1866953230        0.0948315323       14.0910416297
  O        13.9006163651        1.3531608085        3.2310673454
  O         7.0663741753        2.2313497614        9.3635415827
  O         5.0438265665       11.9679067488        4.7622970001
  O        12.8849667114       14.2639691267        7.8272862432
  O         1.5972309104       12.6261911573        7.2820698114
  O        12.2776162931        9.8690485645        2.5179952204
  O         0.2021694317       14.1923136488       12.3580017109
  O        15.6648676783        3.7807487671       10.9528792814
  O         7.4158149907        5.5725786019        2.6777092000
  O        10.8845182238       13.9683874867       12.5994229928
  O        16.2564967768       15.0087581999        2.3344896989
  O         3.2700694419       10.2492515961       12.4526687673
  O         8.0039738994        1.8741778268       11.2590594165
  O         6.1816925332       10.8643138403        9.1759049259
  O         2.4590422616        2.5729384967       12.3115495736
  O         9.5298240917        5.0565261939       12.5459144130
  O         0.6949175599       13.3498690046       12.1002122904
  O        16.2351723418        5.0764792999        5.9441253735
  O        11.3706887394        6.1196913325       13.4538652732
  O         1.5871024256       14.6051474593       14.1903811573
  O        14.1859386359        1.9555420488       10.5761426497
  O         6.1057381237       13.9349490358       15.0679291602
  O        14.2481312169        2.3438131974       15.9489966425
  O         0.3461618527        2.2202924533       12.6243858327
  O        14.9648622503       10.9217111517        6.3347913324
  O         9.1597611092        4.9361040255       15.5725440623
  O        10.0185682646       11.8705362897        1.2472539489
  O        15.1188816788        0.3842635504        1.6708398607
  O        12.9254522237       12.4664240806        1.8586702580
  O        12.9047229986        8.1267313797        2.5637719825
  O         7.1035577250       11.8967762507        2.3493325211
  O        10.0067402703        2.3283650521       12.2679684603
  O         0.1484394319        9.8741988377        0.9871400490
  O        14.6197582482       14.2475505228        5.1976270812
  O         7.2828727800        0.3059671488       13.8819004802
  O         0.1507907897        4.4513855569        7.2200683148
  O         4.9231074348        4.7575033054        4.9520037592
  O         7.5349098073       14.3669728688       10.6287517276
  O        11.8586180952        8.6537479307        4.2866685652
  O         5.0145547446       13.8009640754        4.9852763528
  O        15.9705187472       11.1849161355       13.5936188371
  O        13.7389155223       14.9767289038       12.7936906554
  O        14.4775441145       14.5982231492       14.1109966054
  O         2.2669811050        5.9898062999        2.4921370331
  O         5.6893969779       14.0778054719       10.5686663184
  O         3.5154613602        7.3625720741        1.8953416765
  O        12.2567051834        2.0659246420       13.0839788406
  O        13.8527686320       11.4790382289        5.2297267240
  O         1.5892099874        8.6096931515        7.1429452329
  O        13.2957778146        1.0396747512        0.6845183188
  O         1.9399071269        5.7822928369        7.0341242108
  O         3.0042259352       13.2437114116        1.6476166916
  O         4.0436279643       15.5219105142        7.4910827355
  O        15.5838589950       10.9555745323        7.7831528611
  O         0.0703050506       13.0422826651       15.4304476662
  O        11.0272940424        1.6800265822        4.9477940980
  O        13.9367851691       15.6799099254        2.6066580345
  O         9.2723621141        1.9649024696       13.2537183404
  O         1.4343477912        3.5019890912        0.8770964126
  O         1.4424510476       10.0219575758        1.7310164658
  O        16.1782034155       10.9013619318        0.9533979446
  O        16.0480338584        8.2303411859       11.9864649089
  O        10.8018232466        7.7279053567        8.6408869667
  O        11.4411266882        0.1488675874        9.6982087231
  O         4.3458766316        9.4305992403       14.7587440246
  O        11.4277291891       14.1299722801       14.6803003123
  O         8.4603678270        1.2761395694        2.5582639612
  O         8.3057246991        1.8447492250       14.0975673196
  O         9.2573345564        2.1654342644        8.3527192551
  O        10.8404328840       10.7756510875       14.7034901774
  O         4.2412725293        3.5122189469       14.8979924707
  O         1.6297902201        2.9859416444        4.3323167330
  O         1.7604696869        4.7898640736       12.9637589120
  O         8.6546490598       11.4138844662       10.5146906437
  O        10.7894752603       15.3703882578       12.2505345601
  O         1.0135487603        7.4766314797        4.4255957910
  O         0.1937086416        3.3102822700        1.3097119992
  O        14.5288671571        6.5655372365       14.0743926010
  O         6.7873510681        1.4120444197       12.0651720478
  O        11.7336684930        7.9679080500        2.7648433206
  O        10.8048586384        7.2091435589        1.7284892713
  O         4.0160830877        1.1409019802       14.9654136467
  O         4.1352138239        1.3467329200        3.6842202349
  O         6.6548312899        1.1680565651        1.6287129963
  O         3.1826538253       14.2455764176        5.8543753045
  O         9.7625027726       13.4962574262       11.0623811737
  O         9.6800871435       11.4781002278       13.1460579860
  O        12.0798582856        7.2332125224        4.7566486659
  O         7.5255246756       15.5239564618        3.5729893044
  O        10.3343005491        6.6447186920        0.3024700636
  O        10.1751305622       16.0213023437        8.8544835903
  O         0.9629909179       13.0901708197       10.7249049839
  O         8.0734792220        0.5307140795       13.6242303094
  O         0.8975600022        3.5797239835       13.9391283568
  O         7.2011335763        3.5906469390        6.7750624814
  O        14.0805876847        3.9298818815        2.1221872717
  O         5.3310840905        5.5453051271       14.4311730516
  O        15.6239044029        3.0831445800       15.2688056357
  O         4.2917409862       14.7306617110       12.3006010041
  O        10.5210641766       13.1136569919        0.7181817028
  O         8.0589459625       13.7270691713        7.9502655840
  O         8.8237692204       10.7757975234       12.0516111023
  O        12.1568444101       15.0238221344        8.2020567189
  O         3.8553789730        8.7207144042        1.7779520138
  O         4.8351531171        6.8750808663        8.9641483319
  O         0.2931158981       13.1705480687        8.8449353163
  O        12.1007967981        8.7151585856       11.0672696464
  O         1.9741008673       16.0694616486        7.8139242386
  O         4.2407857352        4.1826020113       15.2014683283
  O        11.5365314211        9.9817040022       14.1925494419
  O        15.7878536070        6.3932369974        6.0647187812
  O        13.0216960008        7.2430705504       14.9121794146
  O        14.4683830562        9.5255169012       11.2071195137
  O         9.5934565387        9.4286461091        0.2931885067
  O         7.4173298450       10.7146549687        2.2159552843
  O         9.6309231884        2.5857170895        5.1479903180
  O         3.7172146427       12.2757783613        3.5873315263
  O         0.2868159590        6.4627920976        0.2146164103
  O         8.3762900010        2.0447306097        5.0246731581
  O         9.7554406513        4.9800575911        6.6100877977
  O         3.4588478202        5.2010259983       10.3121282530
  O        15.2055963736       14.6393764404       15.7259817709
  O         2.2177873424       10.1612091131        2.4185443245
  O        10.6904666501       13.2188426594       15.6470120560
  O         2.8528358348        7.0908103844       15.9513501291
  O         1.4776790684        9.3501523728        7.5800425291
  O         5.1308025921        7.4671925093       10.9615797370
  O        12.5220282926        4.4482908952        9.5109963432
  O         2.2848818388        4.7155527487        2.7618749474
  O         5.3205592548        5.5064098511        4.6903708991
  O         4.6008073534       10.2844385885       15.3031848811
  O         7.4829891893       14.3313302055        0.9115425796
  O         3.5909802977        0.4854258123        6.2656699714
  O         8.9790252039        0.2488896791        1.7599692519
  O        16.0496444622        6.9905547757        4.3258446718
  O        14.1750592936       12.1900134258        1.4559737560
  O         0.2149665512        8.2242063370       15.4411270898
  O        13.0982744845       15.3877712217       13.0885626355
  O        16.0943118809        7.2250461156       14.5872724086
  O         9.9850803767       14.0389435702        0.9487946950
  O        11.4106476196        9.4023367254       15.0900951474
  O        15.6630194625       13.2690032894        2.7486795938
  O        13.5144950933       11.6398263494        3.6626803137
  O         4.4918226109        7.1651425194       13.5540245738
  O        11.6864328537        1.7672021443       16.0939317056
  O         9.2350384023       13.5572032921       15.8625146319
  O         9.3946001308        0.1018946240        7.4877613459
  O         6.9636591715        4.7660462289        7.0447805979
  O        15.2569462342        0.5927786241        4.2174869421
  O         0.5973716124        7.8498663519        3.6749403947
  O        13.5381963944        9.9919598267        0.7404628653
  O        10.0234297317        5.9454076294       10.0673524765
  O        12.2489055151       14.3656372426        4.1540230211
  O        15.0973738004        1.0078915842       12.0204649854
  O         8.6744419859        1.9697512923       16.2514002058
  O         3.6332139798       13.6644189069        9.7413269163
  O        11.9276137699        1.4150269461       15.4898375362
  O         3.7740298073       15.5372941004        0.7426096160
  O        14.4419222175        7.3178745485       14.8652763410
  O         2.0355965560        7.8187557801        2.0578507475
  O        14.7411127762        6.3333036271       11.6484015747
  O         9.6700162221       11.2369338428        6.1188924191
  O         0.6943041489        2.5004637064        0.0907695518
  O         7.9959258118        9.3356890236        7.2517990492
  O        12.1527327431       10.9119713093       15.7771091908
  O         8.5686484129       16.1365969859        5.6508361972
  O         7.6341359503       13.8017900973        2.1865571734
  O         3.8155673425        2.1665485103       15.0571151055
  O         9.5710077775       14.7533488706        3.9947277297
  O         7.9427161764       13.6238739302        5.8174813063
  O         1.3691115011        7.4067843179       16.0616735982
  O         0.1600029133        8.8106035205        4.4638205217
  O         5.5095181064       13.9864937670       13.8642588573
  O         6.2956393204        0.2131304364        2.3774104312
  O        16.2131421840       10.5926653585       14.0631981814
  O         8.1580826709        8.4387055401       10.5597784787
  O        15.4880222798        4.4641383414        1.8718609456
  O         0.4388383003        0.5876744882        0.2593209655
  O         5.4303814205        5.1588756884        5.3904821928
  O         8.8882809401       11.6664956700        0.7351728867
     300
 i =        2, E =     -3493.2711435262
 Si         3.1016654617        1.9237843926        7.7513928051
 Si         6.0543831621        7.9300792310       10.0734049489
 Si        15.4316767706        5.1280855729        6.7558564919
 Si         5.0598778038        9.0751608140        5.3167227300
 Si         4.8990857398       15.5490509560       13.4430294608
 Si         7.3557030514       12.5136315310        1.8303286210
 Si         4.6939668644       14.0327878748        2.0801183149
 Si        12.2319474798        2.5057913355       12.4924827885
 Si         6.8296678274       13.5504251107        6.0405227243
 Si        15.7564054529       14.5765105555        7.8883465939
 Si         1.8618216558       11.3054124340       14.4479940728
 Si        14.3534526299        4.5213530546        4.5708573118
 Si         1.5107284046        4.1801100773        6.4229606065
 Si         4.2480069872        9.4869647445        3.6008510210
 Si        11.5992985307        4.5797207573       15.5138223972
 Si        15.1707202421        5.3245470754        9.2362394751
 Si         0.1851033230       10.2535433833        6.0028745106
 Si         2.8266733590        8.1446567188        9.6233335065
 Si         6.8734851040        2.5304952801        4.5565232837
 Si        16.0942173554       10.0020435806       16.0962019227
 Si         2.6702408198        4.9948248932       11.6929362801
 Si        15.9509590272        9.7763078477        7.7274337832
 Si         0.2576192155       -0.0045345889        7.5143030868
 Si         8.6139864939        7.0247853365        6.4824612635
 Si         2.7710495355        8.4468753762        3.6633708489
 Si        14.1570025041       15.8592993957        9.4294981990
 Si        16.2903960098       14.2150748634        7.1045209570
 Si         7.3870072451       12.0335940105        9.8678203805
 Si        10.8542242328        1.6463782804       15.7257611552
 Si        13.6564216296        3.6429615554        2.6513797733
 Si         5.7256597486        8.4379090001       15.0794061414
 Si         0.5972505317        0.6804758628        5.6823102063
 Si         9.6925256268        3.4521749623        0.2125442425
 Si        14.2976749876       10.5132603092       11.3207227706
 Si        12.6979641482        3.5071885186        5.3373715329
 Si        11.5524063549       14.9984308700       13.5251942513
 Si        15.1835342448       15.1465523524        4.4379542990
 Si         6.2196870116        0.8600622544        7.5348098899
 Si        14.9047133483        6.8413526453        8.2161605725
 Si         1.2156989681        2.0428337222        4.4267439374
 Si         5.5426315666        4.9482739668        3.6949628283
 Si         0.7059017101        0.4245161242       13.5800982587
 Si        10.6824817377        2.2919595459        5.2975100163
 Si        13.4737572283       10.7163105624        5.0806244332
 Si        10.5537699740       15.2394428907        8.1327619091
 Si        10.8314682325        0.5156229371        8.1059573157
 Si        12.8987581838        4.3213350070       10.2819362089
 Si         5.4141515828        1.4031429678        5.4249146708
 Si         4.1793277538       12.3619302074       12.4056776599
 Si         6.0153236492        9.3220696554       12.2385044834
 Si         6.3229294256        4.1727065051        9.1180264930
 Si         3.8651675028        6.3443084855       16.1978033637
 Si         8.5298260382        2.9032966014       15.3008973107
 Si        15.5667355803        2.5339001144       13.0434785760
 Si         3.2624703206       12.7162843494       10.6007372370
 Si         9.6432817073        5.0122990684        4.5754990360
 Si         6.9314767518        2.7663804912        1.8643698630
 Si         0.8941334029        2.3079486844        0.6997019793
 Si        14.3482065498        0.4790484828        9.0005649913
 Si         0.4603938830        5.4383513749       12.3104820302
 Si         8.3836041439        5.0748901349        8.1520209834
 Si        15.9632405803        5.7093476503       15.3115809211
 Si         4.4738734308        9.1663286844       10.4860150297
 Si        10.5864448581        5.5906277687        6.9665968208
 Si        15.2160626308        6.0771126431       14.6816037533
 Si         8.5719761490        6.6971371594        0.0507041931
 Si        12.0146787985        3.3671874466        3.4413721705
 Si         7.7464498214       14.4481656098        4.0540397013
 Si         0.0402028809       10.6294639274        3.7847253632
 Si         5.5482292738        5.0138068333       10.3490904933
 Si        12.1939482891        8.6979247537        3.1789528091
 Si         4.6916708083        9.4136889512        7.7595861179
 Si         5.8262778771        3.9501548528       13.7170180357
 Si        11.4960282156        2.5759274696        9.3003851658
 Si         6.2997328090       12.2814669769        9.7146045311
 Si        14.0119610525        4.4126059399        9.0877684918
 Si        13.0467037845        5.2654140694       13.9276771277
 Si         1.1029774289       10.2028608789       16.2693452150
 Si        12.0657676490       10.1887206393        0.4516165471
 Si        16.1542603274        8.9940887142        7.4471750882
 Si        15.8948018579        8.6021475039       15.2161929519
 Si         1.7353249353        9.2154038756        0.2761805886
 Si         1.4449156940        4.5235965515        4.8707282904
 Si         1.4993347710       14.9505151927        7.7634957233
 Si         0.8377561043        3.3826718463        0.6824467054
 Si         0.1764735493        2.4305142231        0.2538864299
 Si         3.2946713332       12.7792622163       16.0147824983
 Si        12.3473893007        4.4609244898       14.5802444262
 Si        12.9462729140        1.8186875336        3.4110394980
 Si         5.1574250228        2.1653423780        1.3732727248
 Si        15.5553091120        5.9041879462        4.3391406801
 Si         8.4097270602        0.9354715969       14.5241170994
 Si         3.8442276409        3.0330809249       14.2844909408
 Si         2.9027734663       12.2122242871       12.0197807003
 Si        13.5691166117       13.7692830705        8.4979019359
 Si         0.0488140282        7.0564395164        9.9547923575
 Si        15.7800185585        0.7205241333       13.7721343433
 Si        12.3517791674        8.4657085388        6.9702259076
 Si         2.3595666439        3.2910541531        5.8174002232
 Si         1.6357615407        3.6455482262       11.2360648299
  O         4.9338467068        9.8896874240       12.0761505044
  O        14.0962332224       12.9507605642        7.6034586511
  O        10.5563443720        8.3852111728       15.4661375552
  O        11.8698189140       11.7343888776        3.5356635581
  O         0.5000400878        4.9856861253       10.0035227243
  O         6.6800634311       11.1206947675       16.2496050959
  O         4.3906342804       10.7517928973        1.7893482851
  O         0.9724367298       11.0720031418       13.6846812507
  O         4.0718444467        7.7341253815        0.0241025669
  O         6.6068105176       14.7362741226       10.2778550021
  O        13.6123388325        6.8985891517        6.4770467374
  O         7.9870688990        0.6094745282       11.9368359580
  O         5.3685786530       15.6474678304       15.8579281168
  O        12.7590639151        3.7356631456        0.0956346254
  O         3.8229586142        3.9762164267       13.4960673228
  O         5.1847988510       11.9268052613        9.3029972206
  O         4.0125123119       14.0948784774       16.1502396707
  O        12.5324102509       10.3446810475       14.3795649413
  O        12.0759871248        9.9626417603       15.9742914331
  O        12.2192528605        0.0967482679       14.0818041988
  O        13.9099800677        1.3493313235        3.2669223877
  O         7.0376473469        2.2363486301        9.3240535466
  O         5.0328127739       11.9801596974        4.7569109044
  O        12.8881177340       14.2640535419        7.7819728170
  O         1.6036565683       12.6538446041        7.2586219927
  O        12.2424610828        9.9001414239        2.5238423244
  O         0.2080979389       14.2241090943       12.3680428756
  O        15.7124523141        3.7759727720       10.9828920780
  O         7.3444870690        5.5555087717        2.7349682698
  O        10.8937549170       13.9711530332       12.5661778486
  O        16.2468676234       14.9821506005        2.3535842646
  O         3.2548124383       10.2587224171       12.4835171172
  O         7.9886984040        1.9055511169       11.2060735559
  O         6.2049030322       10.8656844057        9.1707545947
  O         2.5084355132        2.5522124697       12.2642826966
  O         9.5564104345        5.0659368702       12.5372011158
  O         0.6542683021       13.3096045743       12.1052461423
  O        16.2457106016        5.0700967808        5.9454848023
  O        11.3198371697        6.0881721732       13.4423702900
  O         1.5833165755       14.6314650757       14.1807628052
  O        14.1608067154        1.9722261745       10.5581929732
  O         6.1404001214       13.9520940771       15.0859480195
  O        14.2403713464        2.3095665222       15.9711594281
  O         0.3716368135        2.1755694712       12.6310485904
  O        15.0069588133       11.0490397588        6.3437478449
  O         9.1625224566        4.9385267950       15.6046712826
  O        10.0292278640       11.8642965773        1.2596583171
  O        15.1002526736        0.3297563075        1.6586474939
  O        12.9303858526       12.4967479645        1.8242533409
  O        12.9233937610        8.1235786755        2.5404294233
  O         7.0389912636       11.8339105802        2.3350905365
  O         9.9857129733        2.3026865169       12.2660793574
  O         0.1079807390        9.8748158409        0.9989343604
  O        14.6366730921       14.2468643122        5.2312213878
  O         7.4047291287        0.2193282922       13.7854926004
  O         0.1253029645        4.3870738711        7.2529837767
  O         4.8176064465        4.9369004831        5.0358152831
  O         7.5639874634       14.3808834590       10.6406470368
  O        11.8744517721        8.6602581211        4.3384216899
  O         5.0305129233       13.7965077569        5.0214022281