#LAMMPS data file via write_data, version 29 Oct 2020, timestep = 10000

3000 atoms
2 atom types

0.0 35.1 xlo xhi
0.0 35.1 ylo yhi
0.0 35.1 zlo zhi

Masses

1 28.0855 #Si
2 15.9994 #O

#generate random configurations: #Si:#O=1000:2000 
# Ref:
#
Atoms # atomic

# SiO2.dat
