#LAMMPS data file via write_data, version 29 Oct 2020, timestep = 10000

3 atoms
2 atom types

0.0 35.1 xlo xhi
0.0 35.1 ylo yhi
0.0 35.1 zlo zhi

Masses

1 28.0855 #Si
2 15.9994 #O

Atoms 

1 1 2.4 2.619657774237545 6.829623763255305 2.00214060986462
2 2 -1.2 4.325220611991461 6.510660168678767 2.642681268248342
3 2 -1.2 3.314325492442991 8.023891775150195 2.880129301264441
