#LAMMPS data file via write_data, version 29 Oct 2020, timestep = 10000

3000 atoms
2 atom types

0.0 35.1 xlo xhi
0.0 35.1 ylo yhi
0.0 35.1 zlo zhi

Masses

1 28.0855 #Si
2 15.9994 #O

#generate random configurations: #Si:#O=1000:2000 
# Ref:
#
Atoms # atomic

# SiO2.dat
1 1 2.4 6 22 22
2 1 2.4 32 22 32
3 1 2.4 22 4 0
4 1 2.4 28 30 8
5 1 2.4 22 26 14
6 1 2.4 28 22 24
7 1 2.4 22 24 26
1 1 2.4 6 22 22
2 1 2.4 32 22 32
3 1 2.4 22 4 0
4 1 2.4 28 30 8
5 1 2.4 22 26 14
6 1 2.4 28 22 24
7 1 2.4 22 24 26
8 1 2.4 26 10 2
9 1 2.4 28 22 18
10 1 2.4 10 32 24
11 1 2.4 22 0 30
12 1 2.4 6 16 6
13 1 2.4 2 2 8
14 1 2.4 6 4 32
15 1 2.4 10 2 14
16 1 2.4 18 22 18
17 1 2.4 18 16 10
18 1 2.4 18 10 12
19 1 2.4 22 10 32
20 1 2.4 30 26 26
21 1 2.4 0 24 18
22 1 2.4 20 4 20
23 1 2.4 14 28 18
24 1 2.4 32 30 16
25 1 2.4 2 2 24
26 1 2.4 32 10 4
27 1 2.4 20 20 6
28 1 2.4 18 26 20
29 1 2.4 30 2 6
30 1 2.4 18 0 8
31 1 2.4 22 6 22
32 1 2.4 18 8 0
33 1 2.4 20 32 22
34 1 2.4 32 28 88 1 2.4 26 10 2
9 1 2.4 28 22 18
10 1 2.4 10 32 24
11 1 2.4 22 0 30
12 1 2.4 6 16 6
13 1 2.4 2 2 8
14 1 2.4 6 4 32
15 1 2.4 10 2 14
16 1 2.4 18 22 18
17 1 2.4 18 16 10
18 1 2.4 18 10 12
19 1 2.4 22 10 32
20 1 2.4 30 26 26
21 1 2.4 0 24 18
22 1 2.4 20 4 20
23 1 2.4 14 28 18
24 1 2.4 32 30 16
25 1 2.4 2 2 24
26 1 2.4 32 10 4
27 1 2.4 20 20 6
28 1 2.4 18 26 20
29 1 2.4 30 2 6
30 1 2.4 18 0 8
31 1 2.4 22 6 22
32 1 2.4 18 8 0
33 1 2.4 20 32 22
34 1 2.4 32 28 8
35 1 2.4 26 14 4
36 1 2.4 22 10 8
37 1 2.4 14 8 28
38 1 2.4 18 10 2
39 1 2.4 4 0 18
40 1 2.4 32 30 26
41 1 2.4 24 26 2
42 1 2.4 12 2 2
43 1 2.4 6 32 18
44 1 2.4 10 30 2
45 1 2.4 0 2 24
46 1 2.4 0 12 12
47 1 2.4 16 26 20
48 1 2.4 12 10 4
49 1 2.4 6 6 32
50 1 2.4 28 8 4
51 1 2.4 20 14 20
52 1 2.4 6 8 24
53 1 2.4 28 6 16
54 1 2.4 28 18 12
55 1 2.4 32 28 30
56 1 2.4 26 18 22
57 1 2.4 6 10 2
58 1 2.4 12 28 14
59 1 2.4 20 12 32
60 1 2.4 14 20 14
61 1 2.4 0 28 32
62 1 2.4 10 24 30
63 1 2.4 20 2 12
64 1 2.4 32 30 18
65 1 2.4 4 8 12
66 1 2.4 8 32 16
67 1 2.4 14 6 0
68 1 2.4 6 18 16
69 1 2.4 14 30 10
70 1 2.4 12 32 8
71 1 2.4 16 2 8
72 1 2.4 8 18 24
73 1 2.4 32 20 4
74 1 2.4 4 30 22
75 1 2.4 28 32 6
76 1 2.4 24 20 32
77 1 2.4 18 0 28
78 1 2.4 10 0 8
79 1 2.4 2 12 24
80 1 2.4 10 12 24
81 1 2.4 28 24 2
82 1 2.4 14 10 8
83 1 2.4 26 16 24
84 1 2.4 4 28 12
85 1 2.4 26 26 28
86 1 2.4 8 26 26
87 1 2.4 14 2 28
88 1 2.4 20 0 24
89 1 2.4 32 32 2
90 1 2.4 22 30 30
91 1 2.4 20 20 0
92 1 2.4 8 30 32
93 1 2.4 4 26 12
94 1 2.4 16 6 10
95 1 2.4 22 18 10
96 1 2.4 12 28 30
97 1 2.4 2 4 2
98 1 2.4 30 8 4
99 1 2.4 14 0 28
100 1 2.4 32 0 22
101 1 2.4 2 30 4
102 1 2.4 24 20 12
103 1 2.4 16 4 20
104 1 2.4 30 2 28
105 1 2.4 16 8 28
106 1 2.4 20 16 14
107 1 2.4 30 2 22
108 1 2.4 8 32 2
109 1 2.4 2 12 20
110 1 2.4 26 30 28
111 1 2.4 12 28 4
112 1 2.4 10 6 14
113 1 2.4 4 32 22
114 1 2.4 14 12 20
115 1 2.4 16 4 14
116 1 2.4 26 22 10
117 1 2.4 22 4 26
118 1 2.4 24 26 14
119 1 2.4 30 28 16
120 1 2.4 26 2 8
121 1 2.4 24 18 28
122 1 2.4 6 22 2
123 1 2.4 10 8 2
124 1 2.4 2 16 16
125 1 2.4 26 26 32
126 1 2.4 26 2 22
127 1 2.4 0 22 28
128 1 2.4 28 10 20
129 1 2.4 8 6 22
130 1 2.4 6 28 2
131 1 2.4 18 2 18
132 1 2.4 14 8 24
133 1 2.4 24 12 20
134 1 2.4 16 18 0
135 1 2.4 28 30 22
136 1 2.4 20 28 22
137 1 2.4 24 2 26
138 1 2.4 20 20 26
139 1 2.4 8 8 16
140 1 2.4 26 26 20
141 1 2.4 2 32 6
142 1 2.4 28 30 4
143 1 2.4 0 22 10
144 1 2.4 8 4 12
145 1 2.4 22 0 6
146 1 2.4 0 2 12
147 1 2.4 2 12 26
148 1 2.4 16 12 4
149 1 2.4 0 30 24
150 1 2.4 20 28 0
151 1 2.4 2 6 8
152 1 2.4 28 0 4
153 1 2.4 22 22 8
154 1 2.4 8 30 24
155 1 2.4 28 18 6
156 1 2.4 2 16 24
157 1 2.4 18 30 10
158 1 2.4 30 6 30
159 1 2.4 12 22 20
160 1 2.4 20 30 12
161 1 2.4 26 18 0
162 1 2.4 14 4 22
163 1 2.4 8 20 28
164 1 2.4 32 30 6
165 1 2.4 16 6 30
166 1 2.4 16 12 10
167 1 2.4 32 16 0
168 1 2.4 20 14 24
169 1 2.4 4 20 0
170 1 2.4 20 20 24
171 1 2.4 16 16 18
172 1 2.4 22 28 18
173 1 2.4 16 10 18
174 1 2.4 10 30 26
175 1 2.4 0 14 6
176 1 2.4 12 24 28
177 1 2.4 4 4 32
178 1 2.4 12 12 24
179 1 2.4 0 8 4
180 1 2.4 16 2 10
181 1 2.4 26 32 28
182 1 2.4 18 4 4
183 1 2.4 22 32 20
184 1 2.4 32 0 10
185 1 2.4 30 0 20
186 1 2.4 28 6 22
187 1 2.4 28 24 18
188 1 2.4 6 32 10
189 1 2.4 6 18 28
190 1 2.4 26 28 22
191 1 2.4 32 6 2
192 1 2.4 10 10 4
193 1 2.4 32 2 2
194 1 2.4 12 32 16
195 1 2.4 30 14 32
196 1 2.4 4 4 14
197 1 2.4 16 28 32
198 1 2.4 20 30 8
199 1 2.4 20 20 30
200 1 2.4 20 10 26
201 1 2.4 32 16 2
202 1 2.4 10 0 14
203 1 2.4 2 30 2
204 1 2.4 8 6 32
205 1 2.4 30 32 20
206 1 2.4 2 32 14
207 1 2.4 28 2 10
208 1 2.4 30 24 32
209 1 2.4 32 30 32
210 1 2.4 14 0 22
211 1 2.4 0 18 26
212 1 2.4 12 20 18
213 1 2.4 18 20 6
214 1 2.4 4 2 24
215 1 2.4 28 20 28
216 1 2.4 32 30 14
217 1 2.4 22 18 4
218 1 2.4 20 2 14
219 1 2.4 14 2 6
220 1 2.4 16 24 22
221 1 2.4 12 0 20
222 1 2.4 6 24 32
223 1 2.4 20 22 28
224 1 2.4 26 18 32
225 1 2.4 8 14 12
226 1 2.4 20 4 6
227 1 2.4 14 28 16
228 1 2.4 22 2 18
229 1 2.4 18 14 4
230 1 2.4 16 2 12
231 1 2.4 18 12 18
232 1 2.4 6 20 12
233 1 2.4 22 16 14
234 1 2.4 14 24 10
235 1 2.4 10 20 6
236 1 2.4 0 16 2
237 1 2.4 24 32 14
238 1 2.4 0 18 18
239 1 2.4 6 14 28
240 1 2.4 2 12 14
241 1 2.4 30 4 14
242 1 2.4 30 0 18
243 1 2.4 16 28 18
244 1 2.4 24 14 4
245 1 2.4 30 8 10
246 1 2.4 18 22 10
247 1 2.4 4 12 30
248 1 2.4 0 2 16
249 1 2.4 26 20 20
250 1 2.4 30 16 0
251 1 2.4 32 10 12
252 1 2.4 26 0 18
253 1 2.4 6 16 0
254 1 2.4 0 12 26
255 1 2.4 26 24 12
256 1 2.4 2 26 6
257 1 2.4 20 8 32
258 1 2.4 6 30 10
259 1 2.4 24 0 4
260 1 2.4 16 16 2
261 1 2.4 24 16 26
262 1 2.4 28 8 14
263 1 2.4 24 0 28
264 1 2.4 6 2 12
265 1 2.4 10 16 14
266 1 2.4 22 26 16
267 1 2.4 2 26 32
268 1 2.4 28 8 2
269 1 2.4 16 26 8
270 1 2.4 32 32 32
271 1 2.4 26 16 12
272 1 2.4 28 32 26
273 1 2.4 12 6 6
274 1 2.4 18 8 18
275 1 2.4 32 6 22
276 1 2.4 12 26 6
277 1 2.4 6 32 22
278 1 2.4 30 14 12
279 1 2.4 18 28 6
280 1 2.4 24 4 26
281 1 2.4 4 12 12
282 1 2.4 24 22 12
283 1 2.4 20 18 26
284 1 2.4 16 0 0
285 1 2.4 20 12 4
286 1 2.4 16 20 10
287 1 2.4 32 16 14
288 1 2.4 2 8 6
289 1 2.4 20 6 14
290 1 2.4 4 30 6
291 1 2.4 24 14 18
292 1 2.4 10 18 4
293 1 2.4 12 0 24
294 1 2.4 14 8 30
295 1 2.4 16 18 12
296 1 2.4 10 4 26
297 1 2.4 14 2 2
298 1 2.4 14 8 6
299 1 2.4 18 20 14
300 1 2.4 18 20 10
301 1 2.4 30 24 8
302 1 2.4 28 20 10
303 1 2.4 30 10 4
304 1 2.4 2 0 24
305 1 2.4 26 10 32
306 1 2.4 18 8 16
307 1 2.4 30 16 10
308 1 2.4 28 30 6
309 1 2.4 22 4 6
310 1 2.4 0 28 12
311 1 2.4 22 22 28
312 1 2.4 26 6 6
313 1 2.4 12 16 30
314 1 2.4 10 6 0
315 1 2.4 30 18 14
316 1 2.4 4 12 32
317 1 2.4 16 2 14
318 1 2.4 0 14 14
319 1 2.4 16 22 32
320 1 2.4 16 10 14
321 1 2.4 26 30 20
322 1 2.4 22 24 24
323 1 2.4 10 12 8
324 1 2.4 32 28 32
325 1 2.4 18 26 28
326 1 2.4 8 16 10
327 1 2.4 12 28 32
328 1 2.4 16 28 24
329 1 2.4 8 22 16
330 1 2.4 16 14 0
331 1 2.4 0 28 24
332 1 2.4 14 22 4
333 1 2.4 14 6 8
334 1 2.4 10 30 0
335 1 2.4 28 8 26
336 1 2.4 20 10 28
337 1 2.4 20 32 28
338 1 2.4 6 0 16
339 1 2.4 0 14 32
340 1 2.4 22 30 10
341 1 2.4 26 14 26
342 1 2.4 0 4 12
343 1 2.4 20 12 12
344 1 2.4 2 26 30
345 1 2.4 24 24 32
346 1 2.4 28 6 2
347 1 2.4 18 10 24
348 1 2.4 10 22 20
349 1 2.4 22 14 20
350 1 2.4 32 2 18
351 1 2.4 2 14 16
352 1 2.4 30 2 18
353 1 2.4 16 16 0
354 1 2.4 16 0 28
355 1 2.4 32 0 32
356 1 2.4 22 16 12
357 1 2.4 4 22 16
358 1 2.4 10 14 0
359 1 2.4 28 32 12
360 1 2.4 16 2 18
361 1 2.4 24 26 26
362 1 2.4 30 26 10
363 1 2.4 8 0 6
364 1 2.4 6 16 30
365 1 2.4 12 18 0
366 1 2.4 18 6 22
367 1 2.4 2 16 32
368 1 2.4 22 26 28
369 1 2.4 20 2 28
370 1 2.4 18 22 30
371 1 2.4 22 6 24
372 1 2.4 14 10 2
373 1 2.4 32 10 14
374 1 2.4 26 6 26
375 1 2.4 6 22 18
376 1 2.4 18 12 24
377 1 2.4 6 30 18
378 1 2.4 18 20 32
379 1 2.4 16 30 30
380 1 2.4 20 24 22
381 1 2.4 4 18 32
382 1 2.4 20 8 16
383 1 2.4 2 24 26
384 1 2.4 0 30 0
385 1 2.4 6 28 18
386 1 2.4 4 28 18
387 1 2.4 30 30 20
388 1 2.4 12 32 20
389 1 2.4 4 18 16
390 1 2.4 8 26 14
391 1 2.4 14 14 24
392 1 2.4 4 24 4
393 1 2.4 0 18 32
394 1 2.4 18 4 0
395 1 2.4 2 32 0
396 1 2.4 26 6 16
397 1 2.4 16 14 10
398 1 2.4 26 24 28
399 1 2.4 30 2 32
400 1 2.4 18 4 6
401 1 2.4 6 20 22
402 1 2.4 0 14 30
403 1 2.4 28 26 4
404 1 2.4 26 18 4
405 1 2.4 30 28 14
406 1 2.4 26 14 14
407 1 2.4 4 8 0
408 1 2.4 20 2 18
409 1 2.4 26 30 4
410 1 2.4 28 18 10
411 1 2.4 4 32 14
412 1 2.4 24 12 4
413 1 2.4 6 12 2
414 1 2.4 2 18 14
415 1 2.4 4 28 24
416 1 2.4 30 28 22
417 1 2.4 8 32 14
418 1 2.4 8 30 12
419 1 2.4 0 18 6
420 1 2.4 26 16 2
421 1 2.4 20 14 28
422 1 2.4 28 20 32
423 1 2.4 12 12 32
424 1 2.4 24 18 26
425 1 2.4 8 22 26
426 1 2.4 22 4 24
427 1 2.4 30 6 24
428 1 2.4 14 20 30
429 1 2.4 32 10 26
430 1 2.4 16 8 20
431 1 2.4 12 18 32
432 1 2.4 22 24 10
433 1 2.4 16 24 12
434 1 2.4 12 18 12
435 1 2.4 12 14 18
436 1 2.4 16 26 0
437 1 2.4 20 24 18
438 1 2.4 18 6 30
439 1 2.4 26 20 26
440 1 2.4 20 28 6
441 1 2.4 14 28 0
442 1 2.4 28 24 0
443 1 2.4 28 12 12
444 1 2.4 10 32 20
445 1 2.4 8 22 22
446 1 2.4 14 32 2
447 1 2.4 12 16 4
448 1 2.4 10 30 6
449 1 2.4 20 16 20
450 1 2.4 32 10 20
451 1 2.4 24 20 14
452 1 2.4 6 16 18
453 1 2.4 20 10 2
454 1 2.4 10 4 4
455 1 2.4 28 0 14
456 1 2.4 22 6 32
457 1 2.4 32 20 6
458 1 2.4 28 26 16
459 1 2.4 4 8 14
460 1 2.4 26 6 8
461 1 2.4 2 14 0
462 1 2.4 10 30 12
463 1 2.4 22 20 18
464 1 2.4 10 32 12
465 1 2.4 0 24 8
466 1 2.4 2 10 6
467 1 2.4 8 16 22
468 1 2.4 16 22 22
469 1 2.4 18 10 20
470 1 2.4 20 28 26
471 1 2.4 10 8 12
472 1 2.4 6 10 32
473 1 2.4 8 26 18
474 1 2.4 10 24 4
475 1 2.4 14 26 30
476 1 2.4 4 10 6
477 1 2.4 30 30 32
478 1 2.4 32 14 14
479 1 2.4 2 12 16
480 1 2.4 10 4 6
481 1 2.4 4 0 4
482 1 2.4 30 28 2
483 1 2.4 10 18 10
484 1 2.4 8 16 14
485 1 2.4 26 2 20
486 1 2.4 24 20 10
487 1 2.4 22 0 26
488 1 2.4 32 0 26
489 1 2.4 24 26 4
490 1 2.4 28 18 28
491 1 2.4 14 14 16
492 1 2.4 20 30 16
493 1 2.4 6 20 32
494 1 2.4 6 24 20
495 1 2.4 20 24 0
496 1 2.4 22 26 20
497 1 2.4 22 18 16
498 1 2.4 6 28 6
499 1 2.4 28 16 10
500 1 2.4 18 18 4
501 1 2.4 4 16 24
502 1 2.4 22 28 26
503 1 2.4 8 22 24
504 1 2.4 22 6 10
505 1 2.4 0 26 14
506 1 2.4 8 32 10
507 1 2.4 0 14 4
508 1 2.4 28 32 18
509 1 2.4 10 10 10
510 1 2.4 28 16 24
511 1 2.4 28 0 32
512 1 2.4 18 12 26
513 1 2.4 16 30 6
514 1 2.4 8 6 28
515 1 2.4 20 20 14
516 1 2.4 2 10 24
517 1 2.4 28 14 4
518 1 2.4 2 22 14
519 1 2.4 8 28 16
520 1 2.4 0 8 12
521 1 2.4 4 22 0
522 1 2.4 32 6 6
523 1 2.4 18 30 14
524 1 2.4 4 28 32
525 1 2.4 10 26 8
526 1 2.4 14 24 20
527 1 2.4 22 18 26
528 1 2.4 32 24 16
529 1 2.4 10 26 28
530 1 2.4 24 14 22
531 1 2.4 28 6 14
532 1 2.4 14 20 10
533 1 2.4 8 18 28
534 1 2.4 8 8 12
535 1 2.4 0 8 24
536 1 2.4 4 24 20
537 1 2.4 30 22 30
538 1 2.4 20 6 6
539 1 2.4 6 16 2
540 1 2.4 6 2 2
541 1 2.4 12 4 18
542 1 2.4 4 4 28
543 1 2.4 20 28 20
544 1 2.4 30 30 28
545 1 2.4 32 2 24
546 1 2.4 10 12 32
547 1 2.4 14 6 10
548 1 2.4 18 18 28
549 1 2.4 16 24 2
550 1 2.4 0 6 24
551 1 2.4 6 2 4
552 1 2.4 10 18 8
553 1 2.4 22 30 18
554 1 2.4 20 2 4
555 1 2.4 12 20 32
556 1 2.4 4 2 2
557 1 2.4 26 18 24
558 1 2.4 8 30 28
559 1 2.4 32 14 10
560 1 2.4 2 24 4
561 1 2.4 14 0 32
562 1 2.4 18 6 16
563 1 2.4 32 18 0
564 1 2.4 2 14 10
565 1 2.4 18 28 30
566 1 2.4 12 4 26
567 1 2.4 22 32 2
568 1 2.4 10 14 32
569 1 2.4 30 12 2
570 1 2.4 22 22 10
571 1 2.4 26 0 32
572 1 2.4 22 26 0
573 1 2.4 8 24 10
574 1 2.4 6 28 12
575 1 2.4 14 18 0
576 1 2.4 30 4 16
577 1 2.4 22 10 10
578 1 2.4 18 12 8
579 1 2.4 28 0 12
580 1 2.4 22 12 10
581 1 2.4 32 20 20
582 1 2.4 22 14 0
583 1 2.4 22 10 22
584 1 2.4 14 16 0
585 1 2.4 14 12 6
586 1 2.4 2 10 18
587 1 2.4 32 26 22
588 1 2.4 0 8 18
589 1 2.4 24 6 26
590 1 2.4 8 20 24
591 1 2.4 30 14 2
592 1 2.4 14 24 18
593 1 2.4 20 26 2
594 1 2.4 30 14 16
595 1 2.4 12 22 10
596 1 2.4 10 16 0
597 1 2.4 8 10 8
598 1 2.4 2 4 20
599 1 2.4 16 10 8
600 1 2.4 6 16 14
601 1 2.4 26 32 16
602 1 2.4 4 16 8
603 1 2.4 32 30 10
604 1 2.4 12 14 20
605 1 2.4 6 22 16
606 1 2.4 28 6 30
607 1 2.4 14 24 2
608 1 2.4 26 22 8
609 1 2.4 18 18 18
610 1 2.4 10 10 26
611 1 2.4 0 24 32
612 1 2.4 0 32 4
613 1 2.4 10 10 20
614 1 2.4 14 6 4
615 1 2.4 8 30 22
616 1 2.4 28 4 22
617 1 2.4 20 32 24
618 1 2.4 14 8 0
619 1 2.4 8 2 22
620 1 2.4 4 14 18
621 1 2.4 22 16 2
622 1 2.4 32 16 18
623 1 2.4 10 20 32
624 1 2.4 8 12 18
625 1 2.4 6 8 16
626 1 2.4 30 0 2
627 1 2.4 24 8 28
628 1 2.4 18 4 12
629 1 2.4 4 20 4
630 1 2.4 0 28 2
631 1 2.4 30 32 10
632 1 2.4 12 6 12
633 1 2.4 12 26 16
634 1 2.4 0 16 26
635 1 2.4 28 22 28
636 1 2.4 16 16 14
637 1 2.4 32 6 26
638 1 2.4 32 20 12
639 1 2.4 10 22 24
640 1 2.4 8 30 2
641 1 2.4 6 2 0
642 1 2.4 10 0 4
643 1 2.4 24 10 18
644 1 2.4 24 20 22
645 1 2.4 28 28 0
646 1 2.4 14 32 8
647 1 2.4 26 26 26
648 1 2.4 24 28 16
649 1 2.4 18 26 16
650 1 2.4 24 0 6
651 1 2.4 22 20 2
652 1 2.4 32 20 2
653 1 2.4 4 0 12
654 1 2.4 12 10 14
655 1 2.4 32 26 18
656 1 2.4 18 18 8
657 1 2.4 0 4 32
658 1 2.4 16 28 22
659 1 2.4 22 22 18
660 1 2.4 4 4 8
661 1 2.4 26 22 14
662 1 2.4 16 0 20
663 1 2.4 14 6 32
664 1 2.4 28 0 30
665 1 2.4 4 16 16
666 1 2.4 30 14 0
667 1 2.4 28 16 28
668 1 2.4 30 10 32
669 1 2.4 2 2 30
670 1 2.4 22 12 18
671 1 2.4 32 10 10
672 1 2.4 20 8 6
673 1 2.4 30 18 26
674 1 2.4 30 0 30
675 1 2.4 18 10 6
676 1 2.4 18 12 2
677 1 2.4 4 8 10
678 1 2.4 6 28 14
679 1 2.4 12 0 30
680 1 2.4 10 20 18
681 1 2.4 20 32 18
682 1 2.4 12 22 6
683 1 2.4 30 18 4
684 1 2.4 12 30 4
685 1 2.4 2 2 28
686 1 2.4 0 26 22
687 1 2.4 20 12 0
688 1 2.4 14 8 16
689 1 2.4 16 18 28
690 1 2.4 28 30 26
691 1 2.4 28 0 22
692 1 2.4 18 20 16
693 1 2.4 2 6 18
694 1 2.4 32 12 18
695 1 2.4 24 24 4
696 1 2.4 28 2 0
697 1 2.4 22 30 32
698 1 2.4 28 16 26
699 1 2.4 12 18 26
700 1 2.4 24 8 30
701 1 2.4 32 4 8
702 1 2.4 22 24 32
703 1 2.4 28 24 10
704 1 2.4 32 8 30
705 1 2.4 18 26 12
706 1 2.4 14 30 12
707 1 2.4 18 2 4
708 1 2.4 16 16 32
709 1 2.4 8 14 18
710 1 2.4 0 4 20
711 1 2.4 20 6 30
712 1 2.4 14 18 14
713 1 2.4 26 2 2
714 1 2.4 14 0 4
715 1 2.4 22 26 22
716 1 2.4 24 6 10
717 1 2.4 24 22 16
718 1 2.4 20 24 2
719 1 2.4 2 16 30
720 1 2.4 16 10 26
721 1 2.4 2 0 10
722 1 2.4 8 8 28
723 1 2.4 24 10 8
724 1 2.4 10 2 24
725 1 2.4 0 6 20
726 1 2.4 8 8 20
727 1 2.4 22 2 4
728 1 2.4 6 12 26
729 1 2.4 26 4 2
730 1 2.4 2 18 16
731 1 2.4 2 24 12
732 1 2.4 24 14 2
733 1 2.4 0 14 10
734 1 2.4 22 14 10
735 1 2.4 24 32 10
736 1 2.4 6 16 20
737 1 2.4 0 10 22
738 1 2.4 14 10 28
739 1 2.4 30 20 0
740 1 2.4 24 14 24
741 1 2.4 24 24 24
742 1 2.4 14 26 26
743 1 2.4 30 16 12
744 1 2.4 26 24 0
745 1 2.4 20 12 2
746 1 2.4 8 24 30
747 1 2.4 18 32 26
748 1 2.4 8 10 2
749 1 2.4 4 16 22
750 1 2.4 0 2 20
751 1 2.4 14 20 12
752 1 2.4 8 4 24
753 1 2.4 32 12 30
754 1 2.4 24 26 18
755 1 2.4 26 8 6
756 1 2.4 4 0 14
757 1 2.4 18 4 28
758 1 2.4 6 6 28
759 1 2.4 20 6 12
760 1 2.4 8 24 4
761 1 2.4 30 20 28
762 1 2.4 10 24 2
763 1 2.4 14 28 24
764 1 2.4 4 4 16
765 1 2.4 20 32 12
766 1 2.4 22 16 10
767 1 2.4 20 26 24
768 1 2.4 4 20 12
769 1 2.4 32 28 24
770 1 2.4 2 6 6
771 1 2.4 14 30 22
772 1 2.4 26 30 24
773 1 2.4 4 6 30
774 1 2.4 32 14 4
775 1 2.4 32 32 24
776 1 2.4 0 26 24
777 1 2.4 12 16 26
778 1 2.4 30 28 26
779 1 2.4 18 6 18
780 1 2.4 16 30 2
781 1 2.4 18 0 16
782 1 2.4 12 28 2
783 1 2.4 8 2 18
784 1 2.4 4 30 24
785 1 2.4 0 18 24
786 1 2.4 28 0 10
787 1 2.4 32 32 16
788 1 2.4 24 4 2
789 1 2.4 2 4 16
790 1 2.4 12 18 16
791 1 2.4 20 8 8
792 1 2.4 16 28 2
793 1 2.4 28 30 28
794 1 2.4 0 0 0
795 1 2.4 32 6 18
796 1 2.4 22 8 26
797 1 2.4 10 26 24
798 1 2.4 26 4 22
799 1 2.4 28 22 8
800 1 2.4 18 16 32
801 1 2.4 30 26 22
802 1 2.4 12 26 24
803 1 2.4 26 4 20
804 1 2.4 10 28 30
805 1 2.4 14 18 20
806 1 2.4 8 26 2
807 1 2.4 6 12 6
808 1 2.4 24 18 20
809 1 2.4 20 6 22
810 1 2.4 28 28 22
811 1 2.4 22 30 16
812 1 2.4 10 2 30
813 1 2.4 16 26 4
814 1 2.4 2 20 24
815 1 2.4 12 8 26
816 1 2.4 8 18 10
817 1 2.4 30 0 10
818 1 2.4 30 8 14
819 1 2.4 28 28 26
820 1 2.4 2 28 14
821 1 2.4 18 30 28
822 1 2.4 22 2 20
823 1 2.4 16 14 6
824 1 2.4 10 30 20
825 1 2.4 14 24 6
826 1 2.4 24 8 2
827 1 2.4 14 22 8
828 1 2.4 24 16 6
829 1 2.4 12 32 32
830 1 2.4 10 24 10
831 1 2.4 20 22 8
832 1 2.4 28 24 12
833 1 2.4 20 30 28
834 1 2.4 6 26 0
835 1 2.4 18 6 10
836 1 2.4 20 8 28
837 1 2.4 6 2 18
838 1 2.4 6 12 10
839 1 2.4 30 10 30
840 1 2.4 10 26 14
841 1 2.4 30 14 24
842 1 2.4 6 16 10
843 1 2.4 30 24 30
844 1 2.4 22 20 10
845 1 2.4 0 24 28
846 1 2.4 12 14 28
847 1 2.4 10 32 16
848 1 2.4 18 14 0
849 1 2.4 24 28 28
850 1 2.4 2 0 0
851 1 2.4 16 26 24
852 1 2.4 18 10 30
853 1 2.4 30 8 12
854 1 2.4 28 22 22
855 1 2.4 30 28 6
856 1 2.4 8 28 10
857 1 2.4 14 28 2
858 1 2.4 28 22 10
859 1 2.4 26 22 32
860 1 2.4 10 8 14
861 1 2.4 14 26 8
862 1 2.4 2 8 10
863 1 2.4 30 0 12
864 1 2.4 8 2 24
865 1 2.4 30 22 6
866 1 2.4 4 32 32
867 1 2.4 18 6 26
868 1 2.4 32 22 24
869 1 2.4 18 32 6
870 1 2.4 26 24 6
871 1 2.4 20 24 28
872 1 2.4 12 6 18
873 1 2.4 24 4 10
874 1 2.4 14 18 16
875 1 2.4 2 4 4
876 1 2.4 20 30 4
877 1 2.4 22 8 6
878 1 2.4 14 24 24
879 1 2.4 10 12 18
880 1 2.4 0 6 32
881 1 2.4 10 2 6
882 1 2.4 2 10 28
883 1 2.4 6 28 24
884 1 2.4 4 14 20
885 1 2.4 20 12 8
886 1 2.4 8 12 32
887 1 2.4 14 14 0
888 1 2.4 18 16 28
889 1 2.4 6 32 28
890 1 2.4 22 16 18
891 1 2.4 8 16 6
892 1 2.4 18 28 0
893 1 2.4 22 0 32
894 1 2.4 24 10 14
895 1 2.4 24 14 14
896 1 2.4 22 12 12
897 1 2.4 26 30 10
898 1 2.4 16 8 32
899 1 2.4 18 22 32
900 1 2.4 2 30 26
901 1 2.4 0 8 20
902 1 2.4 6 4 20
903 1 2.4 12 20 16
904 1 2.4 2 24 30
905 1 2.4 12 30 10
906 1 2.4 10 26 22
907 1 2.4 32 10 16
908 1 2.4 8 10 6
909 1 2.4 6 6 6
910 1 2.4 0 22 8
911 1 2.4 16 2 4
912 1 2.4 32 0 0
913 1 2.4 8 8 30
914 1 2.4 10 16 32
915 1 2.4 0 30 10
916 1 2.4 18 28 28
917 1 2.4 0 20 22
918 1 2.4 32 32 12
919 1 2.4 20 24 30
920 1 2.4 12 16 6
921 1 2.4 28 20 2
922 1 2.4 14 18 12
923 1 2.4 20 30 24
924 1 2.4 32 6 30
925 1 2.4 0 24 24
926 1 2.4 24 26 0
927 1 2.4 8 18 32
928 1 2.4 24 10 32
929 1 2.4 12 20 14
930 1 2.4 6 18 2
931 1 2.4 16 14 20
932 1 2.4 32 26 24
933 1 2.4 0 32 24
934 1 2.4 14 26 20
935 1 2.4 12 22 30
936 1 2.4 6 20 28
937 1 2.4 26 8 28
938 1 2.4 16 30 22
939 1 2.4 26 24 14
940 1 2.4 16 4 32
941 1 2.4 22 6 6
942 1 2.4 6 16 26
943 1 2.4 14 24 4
944 1 2.4 4 28 30
945 1 2.4 22 18 6
946 1 2.4 10 8 16
947 1 2.4 14 10 30
948 1 2.4 14 22 2
949 1 2.4 32 12 28
950 1 2.4 30 26 4
951 1 2.4 16 22 4
952 1 2.4 4 22 18
953 1 2.4 30 6 6
954 1 2.4 22 14 24
955 1 2.4 14 8 2
956 1 2.4 6 18 12
957 1 2.4 12 16 28
958 1 2.4 30 30 4
959 1 2.4 16 16 10
960 1 2.4 8 18 14
961 1 2.4 18 20 18
962 1 2.4 4 32 0
963 1 2.4 16 6 20
964 1 2.4 16 28 0
965 1 2.4 16 12 6
966 1 2.4 4 16 4
967 1 2.4 18 16 4
968 1 2.4 28 20 8
969 1 2.4 6 2 8
970 1 2.4 2 10 20
971 1 2.4 24 14 26
972 1 2.4 14 18 26
973 1 2.4 6 14 10
974 1 2.4 30 16 22
975 1 2.4 18 26 22
976 1 2.4 12 26 22
977 1 2.4 10 10 14
978 1 2.4 32 28 26
979 1 2.4 10 10 8
980 1 2.4 26 28 28
981 1 2.4 24 2 14
982 1 2.4 16 26 28
983 1 2.4 6 28 20
984 1 2.4 10 32 18
985 1 2.4 26 22 2
986 1 2.4 4 22 30
987 1 2.4 28 12 20
988 1 2.4 8 22 2
989 1 2.4 18 8 22
990 1 2.4 12 18 24
991 1 2.4 26 26 8
992 1 2.4 10 24 24
993 1 2.4 18 32 30
994 1 2.4 12 0 14
995 1 2.4 28 26 0
996 1 2.4 26 10 10
997 1 2.4 14 26 12
998 1 2.4 12 4 28
999 1 2.4 28 12 22
1000 1 2.4 12 26 14
1001 2 -1.2 0 0 32
 1002 2 -1.2 4 26 20
 1003 2 -1.2 2 14 12
 1004 2 -1.2 0 14 18
 1005 2 -1.2 18 12 6
 1006 2 -1.2 10 18 16
 1007 2 -1.2 2 30 6
 1008 2 -1.2 24 8 8
 1009 2 -1.2 28 8 6
 1010 2 -1.2 24 28 18
 1011 2 -1.2 10 0 18
 1012 2 -1.2 6 0 6
 1013 2 -1.2 16 26 2
 1014 2 -1.2 26 22 26
 1015 2 -1.2 10 30 4
 1016 2 -1.2 28 4 20
 1017 2 -1.2 12 26 12
 1018 2 -1.2 20 22 6
 1019 2 -1.2 8 6 26
 1020 2 -1.2 0 22 2
 1021 2 -1.2 12 18 6
 1022 2 -1.2 30 6 28
 1023 2 -1.2 30 2 30
 1024 2 -1.2 22 0 4
 1025 2 -1.2 2 28 18
 1026 2 -1.2 6 0 32
 1027 2 -1.2 26 2 16
 1028 2 -1.2 24 16 0
 1029 2 -1.2 2 4 28
 1030 2 -1.2 8 20 16
 1031 2 -1.2 4 0 30
 1032 2 -1.2 30 30 22
 1033 2 -1.2 12 14 8
 1034 2 -1.2 20 6 16
 1035 2 -1.2 14 18 10
 1036 2 -1.2 30 6 26
 1037 2 -1.2 4 6 24
 1038 2 -1.2 6 22 30
 1039 2 -1.2 30 30 10
 1040 2 -1.2 26 16 14
 1041 2 -1.2 20 18 14
 1042 2 -1.2 24 10 10
 1043 2 -1.2 26 12 26
 1044 2 -1.2 24 4 24
 1045 2 -1.2 4 24 30
 1046 2 -1.2 14 26 6
 1047 2 -1.2 14 30 20
 1048 2 -1.2 6 30 32
 1049 2 -1.2 32 26 4
 1050 2 -1.2 20 16 6
 1051 2 -1.2 2 20 22
 1052 2 -1.2 2 0 12
 1053 2 -1.2 20 16 12
 1054 2 -1.2 22 20 30
 1055 2 -1.2 32 8 24
 1056 2 -1.2 4 10 2
 1057 2 -1.2 26 26 10
 1058 2 -1.2 26 20 4
 1059 2 -1.2 22 12 0
 1060 2 -1.2 22 22 6
 1061 2 -1.2 18 12 10
 1062 2 -1.2 2 18 22
 1063 2 -1.2 28 8 24
 1064 2 -1.2 32 12 22
 1065 2 -1.2 0 10 20
 1066 2 -1.2 8 18 6
 1067 2 -1.2 26 14 16
 1068 2 -1.2 22 22 26
 1069 2 -1.2 14 4 20
 1070 2 -1.2 12 16 8
 1071 2 -1.2 8 6 30
 1072 2 -1.2 32 28 14
 1073 2 -1.2 22 28 0
 1074 2 -1.2 32 18 32
 1075 2 -1.2 14 32 20
 1076 2 -1.2 8 26 28
 1077 2 -1.2 4 26 0
 1078 2 -1.2 2 14 20
 1079 2 -1.2 6 14 8
 1080 2 -1.2 32 30 28
 1081 2 -1.2 10 18 26
 1082 2 -1.2 0 16 20
 1083 2 -1.2 30 16 6
 1084 2 -1.2 8 24 6
 1085 2 -1.2 8 22 20
 1086 2 -1.2 2 22 10
 1087 2 -1.2 16 14 22
 1088 2 -1.2 6 30 16
 1089 2 -1.2 4 12 18
 1090 2 -1.2 22 6 18
 1091 2 -1.2 0 16 24
 1092 2 -1.2 10 20 28
 1093 2 -1.2 30 22 28
 1094 2 -1.2 2 26 18
 1095 2 -1.2 8 32 0
 1096 2 -1.2 32 20 18
 1097 2 -1.2 26 22 24
 1098 2 -1.2 26 18 8
 1099 2 -1.2 10 18 0
 1100 2 -1.2 26 20 2
 1101 2 -1.2 8 6 24
 1102 2 -1.2 24 4 12
 1103 2 -1.2 14 18 8
 1104 2 -1.2 26 26 24
 1105 2 -1.2 20 4 8
 1106 2 -1.2 28 32 10
 1107 2 -1.2 4 28 22
 1108 2 -1.2 32 20 14
 1109 2 -1.2 10 2 28
 1110 2 -1.2 8 0 2
 1111 2 -1.2 26 0 16
 1112 2 -1.2 20 2 2
 1113 2 -1.2 32 16 12
 1114 2 -1.2 6 10 18
 1115 2 -1.2 6 2 14
 1116 2 -1.2 24 20 20
 1117 2 -1.2 22 30 12
 1118 2 -1.2 2 16 12
 1119 2 -1.2 2 16 2
 1120 2 -1.2 16 28 16
 1121 2 -1.2 18 30 18
 1122 2 -1.2 26 22 0
 1123 2 -1.2 26 18 20
 1124 2 -1.2 22 4 10
 1125 2 -1.2 6 24 18
 1126 2 -1.2 18 8 8
 1127 2 -1.2 4 32 12
 1128 2 -1.2 10 22 8
 1129 2 -1.2 26 0 28
 1130 2 -1.2 24 0 22
 1131 2 -1.2 8 10 10
 1132 2 -1.2 4 10 30
 1133 2 -1.2 6 6 14
 1134 2 -1.2 26 8 8
 1135 2 -1.2 22 0 12
 1136 2 -1.2 20 8 12
 1137 2 -1.2 8 4 14
 1138 2 -1.2 22 12 24
 1139 2 -1.2 14 12 26
 1140 2 -1.2 0 24 6
 1141 2 -1.2 10 18 14
 1142 2 -1.2 10 10 22
 1143 2 -1.2 26 20 32
 1144 2 -1.2 2 20 0
 1145 2 -1.2 12 32 14
 1146 2 -1.2 20 28 4
 1147 2 -1.2 6 8 20
 1148 2 -1.2 32 12 32
 1149 2 -1.2 10 26 4
 1150 2 -1.2 30 22 16
 1151 2 -1.2 16 22 12
 1152 2 -1.2 10 6 16
 1153 2 -1.2 8 24 8
 1154 2 -1.2 10 26 20
 1155 2 -1.2 26 20 6
 1156 2 -1.2 22 18 2
 1157 2 -1.2 32 14 30
 1158 2 -1.2 26 14 32
 1159 2 -1.2 18 22 22
 1160 2 -1.2 8 2 2
 1161 2 -1.2 32 20 16
 1162 2 -1.2 10 22 28
 1163 2 -1.2 20 28 12
 1164 2 -1.2 18 30 30
 1165 2 -1.2 24 30 28
 1166 2 -1.2 20 30 0
 1167 2 -1.2 2 12 6
 1168 2 -1.2 12 10 20
 1169 2 -1.2 28 18 4
 1170 2 -1.2 30 2 24
 1171 2 -1.2 6 4 4
 1172 2 -1.2 10 14 10
 1173 2 -1.2 22 6 14
 1174 2 -1.2 2 18 18
 1175 2 -1.2 32 30 30
 1176 2 -1.2 10 14 4
 1177 2 -1.2 18 14 28
 1178 2 -1.2 22 26 4
 1179 2 -1.2 14 32 26
 1180 2 -1.2 20 28 28
 1181 2 -1.2 30 24 28
 1182 2 -1.2 24 32 4
 1183 2 -1.2 10 14 20
 1184 2 -1.2 10 4 12
 1185 2 -1.2 18 16 30
 1186 2 -1.2 0 16 8
 1187 2 -1.2 20 24 12
 1188 2 -1.2 0 0 20
 1189 2 -1.2 8 28 24
 1190 2 -1.2 26 18 12
 1191 2 -1.2 20 26 26
 1192 2 -1.2 30 20 4
 1193 2 -1.2 18 4 30
 1194 2 -1.2 8 28 12
 1195 2 -1.2 24 12 8
 1196 2 -1.2 2 24 14
 1197 2 -1.2 0 10 28
 1198 2 -1.2 4 8 18
 1199 2 -1.2 8 20 8
 1200 2 -1.2 12 24 6
 1201 2 -1.2 14 2 18
 1202 2 -1.2 14 0 12
 1203 2 -1.2 28 22 30
 1204 2 -1.2 26 20 12
 1205 2 -1.2 2 32 10
 1206 2 -1.2 22 26 2
 1207 2 -1.2 8 20 18
 1208 2 -1.2 12 22 26
 1209 2 -1.2 14 30 28
 1210 2 -1.2 28 0 18
 1211 2 -1.2 28 8 10
 1212 2 -1.2 6 6 30
 1213 2 -1.2 14 16 30
 1214 2 -1.2 2 20 12
 1215 2 -1.2 2 28 20
 1216 2 -1.2 6 26 20
 1217 2 -1.2 12 30 26
 1218 2 -1.2 12 0 22
 1219 2 -1.2 16 28 14
 1220 2 -1.2 12 24 24
 1221 2 -1.2 8 18 30
 1222 2 -1.2 8 30 6
 1223 2 -1.2 24 4 16
 1224 2 -1.2 12 24 14
 1225 2 -1.2 8 2 6
 1226 2 -1.2 22 18 20
 1227 2 -1.2 26 4 28
 1228 2 -1.2 28 12 10
 1229 2 -1.2 18 8 26
 1230 2 -1.2 30 20 26
 1231 2 -1.2 24 16 8
 1232 2 -1.2 14 22 6
 1233 2 -1.2 12 2 26
 1234 2 -1.2 14 8 20
 1235 2 -1.2 20 16 10
 1236 2 -1.2 14 6 2
 1237 2 -1.2 16 14 14
 1238 2 -1.2 26 0 26
 1239 2 -1.2 4 10 4
 1240 2 -1.2 12 6 28
 1241 2 -1.2 16 20 4
 1242 2 -1.2 18 24 2
 1243 2 -1.2 26 14 28
 1244 2 -1.2 26 24 20
 1245 2 -1.2 26 8 14
 1246 2 -1.2 28 8 22
 1247 2 -1.2 20 10 10
 1248 2 -1.2 14 22 22
 1249 2 -1.2 14 26 24
 1250 2 -1.2 2 30 32
 1251 2 -1.2 26 6 20
 1252 2 -1.2 12 14 22
 1253 2 -1.2 6 2 22
 1254 2 -1.2 20 14 0
 1255 2 -1.2 16 32 28
 1256 2 -1.2 18 0 20
 1257 2 -1.2 22 22 16
 1258 2 -1.2 24 6 30
 1259 2 -1.2 18 26 18
 1260 2 -1.2 12 28 10
 1261 2 -1.2 14 0 2
 1262 2 -1.2 12 10 28
 1263 2 -1.2 28 0 20
 1264 2 -1.2 0 22 26
 1265 2 -1.2 16 14 26
 1266 2 -1.2 10 6 26
 1267 2 -1.2 4 20 14
 1268 2 -1.2 22 30 2
 1269 2 -1.2 30 26 18
 1270 2 -1.2 24 30 30
 1271 2 -1.2 4 20 2
 1272 2 -1.2 2 28 24
 1273 2 -1.2 6 28 0
 1274 2 -1.2 24 22 18
 1275 2 -1.2 24 0 32
 1276 2 -1.2 26 18 14
 1277 2 -1.2 8 22 12
 1278 2 -1.2 10 18 18
 1279 2 -1.2 6 4 14
 1280 2 -1.2 20 16 26
 1281 2 -1.2 28 8 8
 1282 2 -1.2 8 2 20
 1283 2 -1.2 26 0 22
 1284 2 -1.2 2 30 18
 1285 2 -1.2 32 4 32
 1286 2 -1.2 8 10 14
 1287 2 -1.2 10 20 16
 1288 2 -1.2 2 12 12
 1289 2 -1.2 12 20 12
 1290 2 -1.2 30 14 10
 1291 2 -1.2 4 4 10
 1292 2 -1.2 20 16 0
 1293 2 -1.2 22 20 4
 1294 2 -1.2 14 8 12
 1295 2 -1.2 18 16 6
 1296 2 -1.2 8 4 22
 1297 2 -1.2 20 10 12
 1298 2 -1.2 12 16 24
 1299 2 -1.2 28 16 20
 1300 2 -1.2 16 28 26
 1301 2 -1.2 0 24 2
 1302 2 -1.2 22 10 18
 1303 2 -1.2 12 20 24
 1304 2 -1.2 32 2 10
 1305 2 -1.2 24 4 8
 1306 2 -1.2 26 6 12
 1307 2 -1.2 28 14 24
 1308 2 -1.2 18 14 22
 1309 2 -1.2 0 32 14
 1310 2 -1.2 8 30 8
 1311 2 -1.2 14 12 32
 1312 2 -1.2 10 26 16
 1313 2 -1.2 16 2 26
 1314 2 -1.2 28 24 24
 1315 2 -1.2 26 26 30
 1316 2 -1.2 16 8 24
 1317 2 -1.2 26 32 0
 1318 2 -1.2 16 0 6
 1319 2 -1.2 16 10 0
 1320 2 -1.2 22 12 4
 1321 2 -1.2 26 32 10
 1322 2 -1.2 14 20 32
 1323 2 -1.2 2 24 22
 1324 2 -1.2 16 2 0
 1325 2 -1.2 14 8 8
 1326 2 -1.2 28 14 28
 1327 2 -1.2 30 6 32
 1328 2 -1.2 22 28 24
 1329 2 -1.2 4 32 6
 1330 2 -1.2 32 8 28
 1331 2 -1.2 28 14 20
 1332 2 -1.2 30 12 8
 1333 2 -1.2 20 20 12
 1334 2 -1.2 30 12 6
 1335 2 -1.2 20 6 26
 1336 2 -1.2 22 30 26
 1337 2 -1.2 20 20 20
 1338 2 -1.2 22 4 32
 1339 2 -1.2 30 24 10
 1340 2 -1.2 20 14 16
 1341 2 -1.2 28 6 32
 1342 2 -1.2 30 14 14
 1343 2 -1.2 22 18 0
 1344 2 -1.2 16 0 2
 1345 2 -1.2 16 8 8
 1346 2 -1.2 18 18 10
 1347 2 -1.2 0 16 12
 1348 2 -1.2 16 24 6
 1349 2 -1.2 0 22 16
 1350 2 -1.2 2 28 16
 1351 2 -1.2 28 30 10
 1352 2 -1.2 8 14 14
 1353 2 -1.2 30 20 12
 1354 2 -1.2 10 4 24
 1355 2 -1.2 28 6 24
 1356 2 -1.2 30 20 24
 1357 2 -1.2 22 24 0
 1358 2 -1.2 0 26 16
 1359 2 -1.2 10 0 12
 1360 2 -1.2 10 10 24
 1361 2 -1.2 32 12 8
 1362 2 -1.2 30 8 26
 1363 2 -1.2 16 26 14
 1364 2 -1.2 26 4 26
 1365 2 -1.2 28 4 18
 1366 2 -1.2 24 6 2
 1367 2 -1.2 28 26 28
 1368 2 -1.2 30 12 24
 1369 2 -1.2 24 26 24
 1370 2 -1.2 0 12 22
 1371 2 -1.2 2 22 0
 1372 2 -1.2 30 2 20
 1373 2 -1.2 22 20 6
 1374 2 -1.2 20 4 22
 1375 2 -1.2 12 16 12
 1376 2 -1.2 26 4 32
 1377 2 -1.2 24 16 22
 1378 2 -1.2 8 32 26
 1379 2 -1.2 22 20 26
 1380 2 -1.2 32 6 32
 1381 2 -1.2 4 14 8
 1382 2 -1.2 22 14 30
 1383 2 -1.2 16 32 20
 1384 2 -1.2 6 14 0
 1385 2 -1.2 28 10 24
 1386 2 -1.2 26 12 18
 1387 2 -1.2 30 8 20
 1388 2 -1.2 24 30 18
 1389 2 -1.2 20 12 26
 1390 2 -1.2 18 2 22
 1391 2 -1.2 30 22 0
 1392 2 -1.2 4 16 12
 1393 2 -1.2 28 10 2
 1394 2 -1.2 24 10 26
 1395 2 -1.2 0 8 26
 1396 2 -1.2 2 2 12
 1397 2 -1.2 6 20 18
 1398 2 -1.2 12 0 18
 1399 2 -1.2 14 0 14
 1400 2 -1.2 20 24 16
 1401 2 -1.2 10 10 12
 1402 2 -1.2 0 10 30
 1403 2 -1.2 12 30 18
 1404 2 -1.2 6 32 0
 1405 2 -1.2 26 28 14
 1406 2 -1.2 24 20 28
 1407 2 -1.2 12 16 0
 1408 2 -1.2 22 32 28
 1409 2 -1.2 12 18 10
 1410 2 -1.2 14 20 28
 1411 2 -1.2 20 26 32
 1412 2 -1.2 6 20 30
 1413 2 -1.2 20 20 28
 1414 2 -1.2 18 24 12
 1415 2 -1.2 16 16 8
 1416 2 -1.2 28 28 28
 1417 2 -1.2 6 20 24
 1418 2 -1.2 18 14 12
 1419 2 -1.2 26 22 20
 1420 2 -1.2 26 12 0
 1421 2 -1.2 22 28 4
 1422 2 -1.2 16 2 2
 1423 2 -1.2 10 20 8
 1424 2 -1.2 8 12 24
 1425 2 -1.2 22 2 30
 1426 2 -1.2 20 24 32
 1427 2 -1.2 26 2 10
 1428 2 -1.2 22 18 18
 1429 2 -1.2 26 6 4
 1430 2 -1.2 2 32 18
 1431 2 -1.2 0 4 28
 1432 2 -1.2 24 20 16
 1433 2 -1.2 4 8 8
 1434 2 -1.2 18 28 16
 1435 2 -1.2 30 32 14
 1436 2 -1.2 14 0 8
 1437 2 -1.2 18 10 28
 1438 2 -1.2 4 12 26
 1439 2 -1.2 28 30 16
 1440 2 -1.2 12 18 28
 1441 2 -1.2 12 0 2
 1442 2 -1.2 18 8 24
 1443 2 -1.2 30 24 24
 1444 2 -1.2 10 16 26
 1445 2 -1.2 16 24 30
 1446 2 -1.2 10 24 12
 1447 2 -1.2 4 30 12
 1448 2 -1.2 16 10 32
 1449 2 -1.2 30 18 32
 1450 2 -1.2 8 26 10
 1451 2 -1.2 20 2 8
 1452 2 -1.2 28 2 16
 1453 2 -1.2 32 6 14
 1454 2 -1.2 32 22 8
 1455 2 -1.2 0 10 0
 1456 2 -1.2 26 28 4
 1457 2 -1.2 30 16 18
 1458 2 -1.2 2 12 8
 1459 2 -1.2 2 24 20
 1460 2 -1.2 22 2 0
 1461 2 -1.2 14 0 18
 1462 2 -1.2 4 24 0
 1463 2 -1.2 2 6 26
 1464 2 -1.2 18 24 14
 1465 2 -1.2 0 32 30
 1466 2 -1.2 26 20 16
 1467 2 -1.2 16 18 22
 1468 2 -1.2 18 12 4
 1469 2 -1.2 4 4 6
 1470 2 -1.2 8 14 24
 1471 2 -1.2 0 18 22
 1472 2 -1.2 22 0 16
 1473 2 -1.2 10 28 32
 1474 2 -1.2 14 28 12
 1475 2 -1.2 8 30 0
 1476 2 -1.2 28 4 8
 1477 2 -1.2 26 12 2
 1478 2 -1.2 0 30 30
 1479 2 -1.2 14 14 26
 1480 2 -1.2 4 22 20
 1481 2 -1.2 24 22 0
 1482 2 -1.2 4 18 22
 1483 2 -1.2 20 32 2
 1484 2 -1.2 8 18 26
 1485 2 -1.2 28 6 0
 1486 2 -1.2 20 2 0
 1487 2 -1.2 30 16 24
 1488 2 -1.2 14 6 14
 1489 2 -1.2 32 18 28
 1490 2 -1.2 22 4 20
 1491 2 -1.2 0 28 14
 1492 2 -1.2 0 32 32
 1493 2 -1.2 26 10 18
 1494 2 -1.2 8 18 22
 1495 2 -1.2 28 4 32
 1496 2 -1.2 4 8 28
 1497 2 -1.2 26 4 16
 1498 2 -1.2 12 22 8
 1499 2 -1.2 20 10 6
 1500 2 -1.2 22 8 14
 1501 2 -1.2 20 14 8
 1502 2 -1.2 8 32 8
 1503 2 -1.2 30 10 24
 1504 2 -1.2 10 22 18
 1505 2 -1.2 6 20 10
 1506 2 -1.2 6 6 16
 1507 2 -1.2 22 2 6
 1508 2 -1.2 6 6 20
 1509 2 -1.2 16 12 12
 1510 2 -1.2 26 4 8
 1511 2 -1.2 6 2 16
 1512 2 -1.2 8 22 4
 1513 2 -1.2 8 32 24
 1514 2 -1.2 20 2 26
 1515 2 -1.2 14 22 16
 1516 2 -1.2 2 18 10
 1517 2 -1.2 18 28 26
 1518 2 -1.2 24 8 12
 1519 2 -1.2 22 26 30
 1520 2 -1.2 20 32 6
 1521 2 -1.2 6 14 4
 1522 2 -1.2 32 18 18
 1523 2 -1.2 4 12 2
 1524 2 -1.2 12 14 0