3000
i = 0, time = 0.000 E = 0.000
Si 21.49145846916151 0.9950427945022218 28.363015231711966
Si 29.850055164414474 21.23701479902499 12.243732618155526
Si 7.759670686321046 19.288389321591456 34.682050843829465
Si 18.292819135958286 19.51627398331571 2.74110699713912
Si 0.8820927832085309 21.011394941064307 0.0037575276372721067
Si 7.341186914087218 25.886215313784483 33.878286567980986
Si 27.348365723522452 2.598128638311388 6.311617698194731
Si 33.36533322257645 4.618387019319726 34.220202972052675
Si 31.693096175801816 14.94849823175311 26.057744071406105
Si 32.09174478244299 7.343323309569424 20.567100994466095
Si 33.762270041619246 12.318636758486827 24.287818708695156
Si 6.648583745207837 32.32690606462075 13.886781116327603
Si 2.030657807085422 17.869748614997842 18.9893321413301
Si 5.211044350393347 17.615880501616825 8.092644675193135
Si 4.356581306893029 7.973639945417158 25.918098587593946
Si 16.668357521700994 20.590004570584135 7.559076372170032
Si 11.388555697278004 13.298319494245039 9.121972676688069
Si 26.284683152586148 24.41534236925772 22.068934943994265
Si 30.23758892717087 28.681809297627407 13.312610117046631
Si 26.022009830114882 27.146145477608847 28.974980220180846
Si 12.542786016067275 8.618965409534109 15.794122232846176
Si 3.332025290140877 17.053260292306177 24.90855755408693
Si 1.384109228584803 31.238160563485767 23.59774692361627
Si 34.715221907656876 1.5094033495210448 24.53935242026777
Si 10.79592993535025 21.447164523756747 14.917177549583487
Si 3.0503556387893362 31.85106423475344 4.098843114698841
Si 33.395857004882 18.912903935901415 19.929281601251333
Si 12.21415625959246 8.222307797461982 4.012337040376705
Si 12.8887438290603 0.500292626905595 30.781608263742566
Si 25.47614435027779 8.015092007425187 32.803847477395124
Si 1.349744321403406 8.350406917921408 20.747553227116736
Si 12.32225806329052 32.28515466198324 8.953199933352588
Si 31.510408451596504 2.8918825527157086 23.910262869116455
Si 24.937671996395594 0.1319838134495201 31.53833145926472
Si 28.805189607026747 29.10543296399374 18.195519455386858
Si 1.749248336970421 26.37471683625807 6.087935216619136
Si 34.48702882821703 8.130876994327203 20.019937205569978
Si 0.5756125283849871 1.7778740492448153 1.1674874122482375
Si 27.934291489627658 2.189701239632186 0.51167833534454
Si 20.42263551362931 25.552195008574003 3.3326804126381693
Si 2.373526552840562 19.664899331405486 28.16176890756779
Si 24.154139026299262 6.790318041347925 23.73738598480968
Si 11.971017491975445 3.8257873172680044 34.459960329443376
Si 22.94818008786457 24.892779000797283 8.15196973488524
Si 11.506067254683739 24.52293215825201 2.877514658152369
Si 30.75164664650346 19.31269271792933 32.92654380003799
Si 27.549242434891227 27.28746243694747 21.930890399691236
Si 3.195615145462739 29.84913497370457 7.011785581167567
Si 14.131847883815848 19.662202719013255 26.71568707499518
Si 10.798328612854178 25.295172719243666 27.576241063835383
Si 21.445746205457855 30.688782339722223 16.804471666949997
Si 19.992560140383166 4.838872041050014 22.939348741338648
Si 21.32261769284847 27.714830170782516 34.97684597773657
Si 31.928124558373867 2.8388105904507217 26.456414895936483
Si 24.302735875199875 9.995574637205452 19.504614957855154
Si 11.034273794589783 22.437121150627256 18.767204161732945
Si 34.711796112412664 19.343606539004384 26.214340010380376
Si 22.82084907414789 21.594177212683963 30.508124262816555
Si 8.280930066922545 17.461553305455823 27.169407763024555
Si 15.43236049206998 12.833638603518116 31.580459629991434
Si 0.11302588814054565 32.75839358317498 27.226428126641366
Si 26.387382654973887 29.20940605026018 26.49437379410872
Si 5.068837240017261 22.691296265446184 28.778419992336204
Si 26.785917555387012 5.204568532458127 25.37997290299667
Si 18.50105916125217 30.23747998650166 23.7911364870405
Si 16.31546436515746 4.176912167011425 5.778744659880331
Si 0.299942146446898 30.73489929832768 13.479283997829867
Si 2.5907399346166113 24.65142749812406 1.340645900663768
Si 31.3641568215617 33.08611636836489 32.066196640003554
Si 10.696227926196633 28.830195232509197 16.97565599276909
Si 33.260849957524485 23.635565011056926 7.113544843381353
Si 30.860516520167266 6.989553027978238 28.355156765151417
Si 25.831919894481473 22.646444087414565 32.17122596055966
Si 5.091854649914595 17.078604018290395 6.340630641229529
Si 33.507954219308026 10.389724391055289 32.37540519936613
Si 0.841512003492364 6.080897620083784 6.325159123705041
Si 26.21449194299935 2.796014224751857 31.14281291487433
Si 8.898618380018718 13.428262424930823 25.49049199441183
Si 33.12603339572107 16.18457023057541 0.7825177417416905
Si 16.31864228500624 29.15570577771685 27.281782098570844
Si 5.168509730852726 18.720776558799376 5.753555838430256
Si 17.05871859011805 8.220743366860269 17.829946719418373
Si 8.096779923243426 27.481070482415557 23.906585869243106
Si 13.345899634098728 10.448483176309328 10.806025715486847
Si 18.908084059635296 24.86833442533658 14.938902827711566
Si 21.05193316162204 14.907813082818762 26.03717041641347
Si 1.4716452141881142 33.07367771313815 7.882699299794418
Si 34.41408578530836 3.1584962412728057 26.026705645177916
Si 21.23594295253122 0.9702826669611303 20.273322830531686
Si 33.69267345557761 33.44207422729637 23.505312908144255
Si 16.348496372021543 14.947242356540373 21.55232126380959
Si 1.9622159244531254 33.804999186089184 27.94990213504702
Si 11.272295667133978 1.371819738687248 17.360428301784246
Si 10.65208275440765 11.302850205398185 13.863680649957603
Si 6.23754374129384 13.168279624898096 27.815135817137524
Si 16.931626136256988 21.248360934793848 5.292948814146235
Si 0.9177554214860201 22.20976096789562 25.309570201441417
Si 25.87467225002519 2.613216821620936 32.42438868557977
Si 15.289536383277447 14.0752327406202 33.5690350763937
Si 31.557156055622624 34.08817744310986 32.18954087480697
Si 28.526722471780612 12.576296085070739 5.68597416320386
Si 14.393416938665966 12.229845860227181 20.995417805241107
Si 9.880387611873337 34.39126295868456 16.75934297167306
Si 6.745058163359901 34.19035494082669 13.926753556380941
Si 22.730724496052293 25.34591866629777 23.52559319912136
Si 21.15010289066413 11.688803643880359 18.702449443967026
Si 33.84883338986531 22.4727247054273 34.713706735904424
Si 34.4034689361783 4.103468039714784 26.83793280388087
Si 15.412005357779263 8.887907317693141 6.93603675832832
Si 26.3175231817473 8.913919243883653 3.163531125635914
Si 8.738330077003173 7.216674654332629 22.9593309209858
Si 12.12053522150654 8.075891339950273 27.761406632166842
Si 29.873755989305195 18.53737682637062 23.544042542754855
Si 12.181243444116854 23.458296970684927 25.802413558379534
Si 21.669974780362498 34.594375519503004 2.2173774659551513
Si 10.4677151999524 26.940831041163527 31.7930062678737
Si 29.648651883915853 20.060953198561876 25.31355509945904
Si 2.0175931645280314 25.293091219546675 12.501161467449613
Si 12.355194690826877 15.069570426411744 26.521017461920543
Si 24.27774620490411 34.36235239795044 31.892351894008453
Si 1.9269803170899291 22.530488233361876 0.7319408481388341
Si 1.3381067178177135 20.69419362825249 20.451304941182386
Si 7.709461783924628 8.030061410011818 27.940400720904687
Si 21.962980566236954 2.2652803310636536 11.698648682299087
Si 3.077664000063574 2.9675708919276804 29.576778173149304
Si 34.58290844093453 26.37546176824528 6.8266030768139006
Si 11.332114423255993 11.944060294744027 17.392535154981097
Si 1.636773480648212 7.886729965176247 3.473637206907867
Si 21.393907260376633 11.358768025870901 21.401461020401197
Si 1.1192209489460263 19.448398021150027 26.64528977473691
Si 3.191529635598236 11.030759638856196 9.68490505422375
Si 25.015839353967888 26.24490186202719 32.14468681095071
Si 1.2013411195547063 5.694088661837751 23.31730843951998
Si 7.7721173189247725 3.545343541387912 5.240960019584416
Si 9.11842573241806 30.566390306203598 10.62964430582692
Si 21.620065029322458 9.5294236338211 7.482226871207287
Si 19.360974472717288 5.141883913786957 5.367041368629341
Si 1.530384870409342 26.455798405387924 34.085276550983025
Si 18.39967085827283 9.94441651765696 16.376571820431348
Si 29.48587363431411 3.143869392061822 9.070824536391699
Si 30.596644828394012 25.74631699888037 2.1033521716127046
Si 28.427463333681537 9.630200400617614 23.26573594251188
Si 17.625511238352374 14.107757449750068 28.474213845609334
Si 13.419809163323093 5.36988705400187 27.808065394209446
Si 33.71773104737827 32.12307731908241 9.3826269455874
Si 28.41076350211593 25.212260826572223 26.444278671331713
Si 11.923138967130834 29.242043058142592 30.924723195860146
Si 28.973388585826505 22.58983953685526 5.278429607490622
Si 14.521006549858344 27.943605258440297 34.99007602334462
Si 32.623160111193236 25.83486718777994 0.774143651174115
Si 25.107676497863576 11.69635825532177 27.55878212356483
Si 26.998313160086212 9.426356015289509 25.50621033533952
Si 12.277301059534425 16.620801689984077 33.42116450643375
Si 23.212558770044087 12.102469382214888 27.875460415728014
Si 23.765727146495035 19.865428286479123 31.14849100161567
Si 15.230125451589254 0.7021477972245783 28.397342156497924
Si 20.719291272920152 12.162719587397104 16.96851124534512
Si 23.0565323984651 5.782305154272402 22.296674150731018
Si 23.393793624022997 3.1716624352319776 18.726001569011476
Si 32.3645934431072 5.871862094858674 18.814420922498858
Si 26.640972758586432 9.701021692156457 15.21867413153867
Si 22.765907794545114 9.4392492208785 0.8156638145598609
Si 27.540268743560954 0.323240746429305 20.341744676945044
Si 33.296705233237404 21.341045368020215 19.459451609891197
Si 30.499922574060182 21.57879814126604 19.312347778520376
Si 6.260260652796091 30.031908656247392 5.304694138222769
Si 32.174599026516 2.0231909239256027 26.001952005556976
Si 23.968493155490187 23.80683213490554 10.418244695549758
Si 31.27551400175824 22.443237144593965 24.085488235368075
Si 13.718615087547352 34.49291210150416 20.77944911421803
Si 34.49673639911393 3.354069957011474 15.076027266619173
Si 3.1993823617065202 29.39150233115128 12.700124620671122
Si 22.536118054355786 0.45976970331243355 13.369159548613755
Si 20.672737635751357 21.984692129497816 4.824677859512888
Si 18.265371928943825 14.630968319827664 1.9851406253777437
Si 6.393884510946641 0.28489820903400365 24.3068904466077
Si 17.209639592206674 31.313529435364337 8.674831912971406
Si 18.4136026375855 30.208307916982857 28.091387474930507
Si 10.581028239427177 23.381947401720623 26.153961723694717
Si 11.834054950051234 16.502374363277927 10.5353958652611
Si 20.096089558374068 5.294874289882903 29.81556944539487
Si 3.3834839393205938 31.42118332675853 11.045968949553236
Si 13.264305792627704 8.330133409679508 28.57276763466107
Si 1.4670365717203318 16.382984986083404 27.28751234023068
Si 19.085556858075403 11.268938125318458 19.260759635925066
Si 20.189856948988453 29.78500418604934 0.2840558774125822
Si 29.81875738932481 34.27084240163857 22.734381723954325
Si 15.52028431557628 32.17480174460917 29.659033439436175
Si 15.840990079788323 23.523558016600656 8.39950869185464
Si 8.78410046117737 27.94065804977278 27.597659882768053
Si 23.068702800788163 14.727658480240773 5.384917634249847
Si 28.9196024921203 19.188098772181675 17.15268177489071
Si 21.33152787318561 3.578548882032239 8.23228620547333
Si 32.897562914845146 26.786952986887858 3.2208647795523397
Si 26.40862962097573 13.744852411301375 0.7046532309212803
Si 21.012411459170167 8.327495637391717 32.41811304217515
Si 0.2938779612796685 14.721415148209891 25.098671252924692
Si 6.761689169867451 5.143829224564087 29.955514247899657
Si 0.9263021966396267 2.4941790159588595 10.614508127331856
Si 29.616269580228707 17.81114866048569 6.001046363517877
Si 25.69677681917836 5.506208613327594 10.461908502195147
Si 24.193371935041622 14.69767481094848 12.141476958559744
Si 11.520545478340908 20.72472045352056 7.521787986598261
Si 21.45177390306138 20.150055636779182 9.895987311710634
Si 16.65692201962589 1.6560650190393784 9.507631184948975
Si 12.939749394915019 2.620728455796968 13.123222748324393
Si 26.20838540349177 4.182974726592257 31.21081400064433
Si 11.864709154976348 24.647177503645135 1.4455942104706743
Si 28.295991377956597 24.112250612335206 32.186824871814196
Si 31.893301451169155 14.84406157145511 19.823294426889788
Si 12.708278669273335 21.60639229747477 8.608353104208009
Si 2.1371231699159665 28.20167181113767 24.04473589689236
Si 30.764743434210068 8.32532139786818 26.829369758940715
Si 6.186065718370453 17.452640741989267 3.0613818430030166
Si 31.42674654354332 32.82030442961024 7.657264634108552
Si 14.556036867868851 28.198684583949316 3.4954341370022948
Si 6.477884589424326 5.394869682631814 18.07503992818306
Si 13.092334649665144 20.405311242750685 1.8889164071616524
Si 17.6899260337706 27.433558824835906 29.350474821221873
Si 0.38877949838104986 15.388242187727842 9.553803780234574
Si 21.818455799558397 2.57190744627236 2.397892633581532
Si 31.31422538029087 15.426651149766046 17.80122734519657
Si 31.91250906400731 14.20355630601718 7.593545593849291
Si 4.975353059164579 10.299453190616035 17.346806760167617
Si 7.441230390332999 32.00913716468358 7.405463867163383
Si 2.2966888718476266 10.984135896498099 17.31245960260716
Si 13.024906385958648 15.852597817139813 34.38271965778264
Si 12.321896130845506 31.581674633004504 19.303051507322586
Si 17.38636174330119 23.642664779624248 19.733931183061305
Si 5.422470119343247 34.61576912326824 11.145329501634887
Si 23.915389268942267 19.692413756676576 28.07532927692253
Si 5.58906045396993 5.103054149459278 31.718130994738083
Si 0.09084586194918115 0.5493051675755954 17.904589691217144
Si 25.77620341447538 13.281783153586847 7.532787960769853
Si 14.783585439121742 20.75702914161796 11.494694605466634
Si 27.49513344386906 4.019216995466122 32.56017118935199
Si 22.212123051955214 15.30573628168258 9.422541953769024
Si 0.7727946268706152 2.9331865680966205 22.611005858947987
Si 31.656861677348456 12.006678266909475 3.6219731292766304
Si 19.154889583818438 32.58228062745034 1.4782294261905136
Si 20.595477879037087 15.102074523257494 13.580689816978369
Si 13.928476985661868 2.0853722145494524 19.54631653385589
Si 15.576691506021529 25.368588623795173 5.386331927751013
Si 25.574770117002952 20.524459544189316 10.976367802943376
Si 14.646969010633475 4.149305402284812 20.571235814029528
Si 9.1928441092731 25.178416006869327 32.714575239938064
Si 19.109219554985998 28.482692426403904 14.659646132874997
Si 8.066903014051656 30.633322642016502 0.4766136277109696
Si 33.346835197497796 26.70841459625893 7.730234734660553
Si 10.48547388489225 23.988570475889038 32.987192265827694
Si 10.847987761602317 30.75942348371655 19.19201567423298
Si 9.514125720626133 24.863403305797455 7.228242997006018
Si 7.938196082392616 9.542521795785028 9.130912623609959
Si 27.503334379494156 12.92206029514133 2.062257438217898
Si 24.502674834078647 8.283308484350155 13.140602204626738
Si 5.7844489503318535 32.82528752066271 0.00550153118775385
Si 17.83502452381683 3.9546906375708284 24.0990555434603
Si 27.396816599359553 21.050196943520557 6.9015255939371505
Si 5.642434254955662 29.59691749432606 14.68415796032729
Si 16.044987656845993 26.313910860099583 25.666496816467834
Si 13.17643153121369 24.52351265675501 12.090099390368538
Si 9.430120981890893 3.0965221646620495 20.240108211638113
Si 18.599817001905482 28.021392552885295 22.106168562276522
Si 22.47335117400752 31.624987220530205 28.091075896571592
Si 23.95808145647612 28.049324661248782 26.959828936204513
Si 9.994514082410657 10.80384490388176 8.35607518109292
Si 7.181714578994885 20.07382476257643 4.773699255541606
Si 11.417603786398868 34.748366181887114 26.16301623557311
Si 17.482212772114586 17.276828926035105 1.3432025037569428
Si 6.9065299851562285 30.40524047172708 18.154358687198304
Si 33.188363286880794 4.245715475404375 20.578637745960744
Si 17.76446897211988 13.482669716707925 14.509420683733484
Si 14.07604120856646 3.894944584011084 10.106356282202894
Si 1.2652233196168177 27.94109767316494 22.422008750970537
Si 13.168396613484767 30.141111948786673 8.076228200346772
Si 17.8860998779102 20.50941464126281 10.963528273781659
Si 4.785525635055924 30.207515186103937 18.802144322904187
Si 11.398418526311191 7.593456293758911 16.785064647520038
Si 16.291880380785205 26.569910655232654 20.027638145166016
Si 20.092749024396905 30.443662844065482 16.211586641549143
Si 15.306707814051302 0.20661372997516336 8.550473354843007
Si 23.953276188084967 34.158029595882546 18.879612360950592
Si 31.086437100906206 23.623304300921593 34.73308864421636
Si 11.769200120051106 4.391327715691949 25.496180099227725
Si 0.46411609115442576 17.45644607708185 31.95908691662991
Si 2.300712628108452 21.04156440348814 26.92705336327941
Si 20.978220876323807 17.2416784908126 2.0910389722274836
Si 17.022754725062196 9.039095109498865 14.504105920998562
Si 12.74435779177309 26.5785026958461 17.247020872206825
Si 32.79538460380897 18.647391483637897 16.233276294816452
Si 4.363405422579262 21.299801547590206 18.10285930125116
Si 23.686994305793487 3.2593702099431496 0.9317683446433408
Si 33.93981526220586 32.831887436014725 30.532616995914818
Si 10.96494951928291 9.497898856550975 28.373155155495102
Si 26.38682459202233 16.23507802448589 15.495349022734244
Si 27.129775814291754 3.6754842032933595 12.27483288792303
Si 28.595496896274717 3.8954413832010797 1.5955126535230963
Si 20.799565098585724 2.88084382036728 14.619081961504087
Si 0.326709636871354 0.24594118058476766 10.826809766843718
Si 11.719261871674817 2.3931141722364013 30.873819159532566
Si 2.6925500660627844 0.8001218708083349 27.727493011629868
Si 11.03358422725423 25.343684203370845 20.34276501028241
Si 7.490009615257883 8.938677155923598 0.5270893191575731
Si 30.030326265242195 16.045139472753092 25.47470442949076
Si 0.15985606961317292 12.761676681008604 22.309888449692526
Si 24.112334142180913 11.562695116093954 31.22969771929823
Si 24.039467637571544 15.333776483834836 19.160639454067784
Si 13.157248366109933 11.090826087835921 1.747425523818829
Si 31.99347409708912 20.018930963075487 12.73653562682197
Si 7.520572750754974 6.625928324047416 26.92623996962898
Si 30.028162530482728 17.103017577422534 28.67511931902705
Si 2.9063235390024924 18.46997463746146 27.38187407656472
Si 17.65909728297238 15.331508772636381 27.319284578861794
Si 30.719941569525748 9.053029662664272 9.693776235957074
Si 21.57707228136161 18.305667041197754 0.8518341941278181
Si 18.007639183146814 17.501065805288764 34.04828231449856
Si 32.58247388144581 14.533785401255859 1.866902147616841
Si 28.6610886338563 18.995217266441838 12.486433906264315
Si 24.803811394428312 3.236718596946702 28.665113552218
Si 34.104506693452684 2.9694640658758398 11.141247092488827
Si 3.1494940321367664 13.979186541980166 26.654372489703654
Si 30.881218032398003 18.735538261423233 0.08886517696893885
Si 9.43670502104548 31.87868362018636 21.175337888815456
Si 3.2675600299533487 13.109280793634017 33.830459871622814
Si 12.84763650857949 24.072360581874793 14.180879724222683
Si 30.321966254314678 30.980230242617623 12.00173509637133
Si 13.427349589959835 7.582850897886822 18.64889685187108
Si 2.6476602032119536 15.280849061984734 8.605199801018696
Si 4.971424940716219 19.965672118832217 8.133581389405276
Si 24.15190833175791 2.1093666885469724 1.4342653806660464
Si 7.133147610561475 28.766531274339588 29.638522160118068
Si 14.781866234980532 33.611621784399034 10.720008786715542
Si 14.646341011853174 33.313245014974854 7.617602294017655
Si 30.761294573392554 24.755922338580675 3.719903858975273
Si 27.334049011440126 17.109313478571455 29.920796006342716
Si 12.80134700948741 15.4314816124381 7.231737691367469
Si 32.991759242195805 11.290633768213187 13.351963555331295
Si 18.405332482921594 19.55649564342463 22.435356365289355
Si 26.94533315152262 0.9753971694786061 12.583359971961654
Si 34.690897959302696 3.7139107117212093 5.012955032468145
Si 31.328137058386805 1.9370244834804415 25.654586119782294
Si 11.462764857251278 14.085574097113938 12.950801912139978
Si 26.65212596105529 24.936554968814896 35.082440727800105
Si 8.112434831694461 26.22916003396087 14.313412979350497
Si 10.825083591927802 33.786210559194735 19.54380770086122
Si 14.103591852483364 4.705510777260802 30.111807098295518
Si 18.328003101273822 24.325541644193763 11.804483807482855
Si 25.88760436932634 8.814026195838348 23.717241986438413
Si 18.445684583651698 18.850750082061477 14.070956972070631
Si 27.458310863271638 3.6897494165930964 28.7319674881241
Si 17.123622598970243 15.34029200028457 5.6718001215658065
Si 2.573192058691652 16.70794911294672 7.0373893192945225
Si 10.613629063122518 29.35765526357603 30.161558974765757
Si 23.979155678513568 10.198841622904682 2.323791404519712
Si 25.05835494911702 16.164435983947403 19.43063690799238
Si 4.38619726207704 33.04401287200933 32.13007476903849
Si 0.5172933634953479 19.557146722902097 13.726499192940777
Si 11.401611049988007 19.901920944108642 29.347551552623443
Si 0.8878675574333175 11.163129568605468 33.403090516254935
Si 27.43488458033691 12.518194793975868 12.83516330331562
Si 28.349320196285884 1.2932712829628916 15.629144646962725
Si 9.82298124245038 34.72119045996683 12.252380137861957
Si 26.295380938813334 18.140349676996316 22.048639383714306
Si 1.9852361998802002 2.1630853504103866 26.736555332539677
Si 4.045754225827213 23.804344691479102 15.725243581145062
Si 10.522207865367871 21.139213695687275 20.371707062230865
Si 20.344794375128625 20.003441136390844 34.184222310450636
Si 24.692423625680508 14.8174773705876 24.360024791573423
Si 0.48362517970350577 18.751429648975368 8.141198274075638
Si 13.936920993761406 19.410761178323604 20.80534871769652
Si 17.274978161291475 22.922274608743177 27.11665763149471
Si 1.9073742464444037 15.021301463340137 16.350912168018002
Si 34.65985535225996 18.12996110436367 23.308163466554834
Si 34.13384878410594 26.557352294121383 5.102986318186222
Si 28.37587218469023 5.76559744488794 15.618173221895002
Si 34.17107008972017 18.599848889577036 14.517837676506547
Si 19.953179422272278 24.913249791960556 8.634983573440895
Si 21.59834373973735 21.801917340143117 7.785333460858457
Si 16.019989516409545 30.259224521097607 0.14610076014559198
Si 18.67564742354752 8.788469483554293 23.189014446320005
Si 21.945353204476767 3.4081884871536587 27.98251688901898
Si 16.52068771300859 0.3378678156953754 24.771686050830127
Si 10.872978351530417 19.972398423717507 22.22031194500383
Si 17.865941954143146 1.1566577482315825 33.434484942946746
Si 6.212056145644059 25.391604670301838 21.25539127871433
Si 25.559495311174715 9.243973952534319 16.27967533973724
Si 21.578767890541116 22.433753355893728 2.3285912247014835
Si 25.876342204265903 15.695053693414442 10.740054163362833
Si 15.219560479085457 26.187336629743747 27.393719325321054
Si 26.024918063257545 27.888530621712235 34.69471112594126
Si 24.96407008802926 19.353133954942184 24.878739400184653
Si 18.949778042207456 9.789645072296068 2.701498744713759
Si 14.03461395118797 8.441698844223525 0.9118685946498079
Si 4.453172528134821 2.577615165145506 6.825022803280181
Si 7.774206401772228 17.63924260002847 16.75178991355029
Si 2.114886589198214 3.6485291989304565 23.90192193088345
Si 17.809972644926326 10.800406414155455 26.392736219366675
Si 30.2193239653255 26.330660395966927 22.887269581631763
Si 7.394188357441504 9.927847312015595 5.034965854045302
Si 23.02456222334741 34.37216275829412 25.632422933150025
Si 12.590383939082852 2.3744399157082876 7.324106435024886
Si 21.904999823321646 28.08487118030322 4.364877314791925
Si 29.076139164588724 9.493902756534291 5.296648719525327
Si 13.654668830528767 21.041003689570328 32.835994829205305
Si 31.351401248818643 0.03374032988172915 28.352015569646294
Si 2.9843765201208203 9.567725426524305 24.817444520587586
Si 19.72529092908268 30.31987912413827 21.032738837293568
Si 2.9833613242518795 30.139987237541316 16.543549236445116
Si 28.846138032217166 3.0568685099805126 3.870854626027742
Si 34.96838821960748 28.506230686095556 29.062934947112673
Si 19.387452595691713 14.883263271110097 28.541247896387727
Si 29.768077042735264 18.750738450824624 31.961539512143883
Si 8.621143002812252 8.359733490108903 10.44235752080584
Si 6.068278427324148 14.701265481673929 6.91872122055393
Si 32.55304537788874 18.46134008751055 32.41398053434295
Si 15.260563935974725 34.680991167438215 16.417686649689436
Si 9.00558031192375 3.150497271534167 8.861119771128601
Si 6.777557049925937 11.775765380051132 27.240649176343783
Si 8.872268637349256 27.30030367927169 12.06935077751981
Si 18.179016199007936 11.404400701540556 17.34619575571346
Si 7.163887935217479 5.640051242001943 4.330423312080402
Si 7.306055774621767 5.162182560760618 25.796666431439505
Si 0.9202899007358125 20.105980850400922 23.42277306460806
Si 14.428651294997215 2.25162755592025 30.39388532129983
Si 31.322322333897276 10.772827178194689 26.83429668140016
Si 4.986364086734025 17.8990578036442 27.25946967256668
Si 3.521655639948289 27.098737315206108 19.75108077509194
Si 10.770282293626664 11.499066154918292 24.690482205238197
Si 18.977744175380504 29.84981107985774 26.704235481352992
Si 15.61814727364939 24.177656696313303 16.80343157610442
Si 19.13313777450259 23.414630735313025 31.050891248189966
Si 27.35340653772726 4.790957126521063 6.383344646508786
Si 21.076660613973832 24.498435471967433 4.441299158827488
Si 18.74698212304365 30.577381233596252 3.807742085897446
Si 30.86147358647041 19.584953416254084 15.249247879604441
Si 23.35776991411716 3.5107986445343182 29.017343370843825
Si 15.9265208949024 23.930313292187783 25.966706521414892
Si 6.379404971792112 15.447067079174628 28.484235315606053
Si 32.92543796198656 30.608220221742407 13.980173244721708
Si 4.840989698825473 23.963356039714164 1.5499043239600996
Si 12.560731232879895 10.270291565158084 32.988547892999364
Si 5.229071130413683 31.299100230007856 6.768162105166588
Si 0.8416077435832109 12.018123526877684 9.094269096220104
Si 0.4365390054390012 26.443014294024458 12.151333443666447
Si 16.87484377446046 7.417590149273755 9.741493209106524
Si 9.376496481843917 5.856737919098439 24.844883941259685
Si 27.48590163025677 4.350466263315203 18.718254843908923
Si 9.990944341036773 2.965467828591665 0.13207811044365558
Si 26.77291316175889 7.172875067389537 3.897141854534383
Si 13.607356957931728 24.931302147645376 4.4485467806327295
Si 33.62990041395075 9.977724833809894 16.701088365459665
Si 23.35722847526479 29.437141706608998 30.268307223588888
Si 15.47486990961336 25.839855093081525 2.535523754680242
Si 25.807554128084284 30.83303614551146 8.802993648712588
Si 13.303436009672929 29.730762135015013 33.10443053256093
Si 2.9625666638502577 11.035788882176865 3.5170081477392108
Si 24.697558773032352 7.126066543354211 26.92560362503267
Si 16.570640929825423 23.909712478454047 27.8026294060648
Si 26.278708342426626 16.510197983857637 14.310682746113734
Si 29.27738541623249 25.617820319786464 1.8289008928951975
Si 21.113634167888016 22.551549871423106 4.1528282897851865
Si 2.524566255307131 13.722713408326419 9.786229849273203
Si 3.8863799458545163 23.553294885102567 9.71343483973267
Si 9.68935484775687 33.987867150875694 7.071863167873302
Si 3.9682235506502446 21.13775457231943 17.88499880487171
Si 4.27070610011006 18.429243522708283 30.972226266370466
Si 34.52463757109633 16.079452820088353 0.9742764945277699
Si 15.938637631166205 5.637586071788728 10.019564484995833
Si 5.576743346416524 4.648549040896645 27.806683149228537
Si 7.015879862016295 5.6529764377756555 5.0071068890586
Si 31.64586435214882 16.388102224431876 18.989362115901066
Si 0.8738828568695373 0.9941212010890866 29.127210963591804
Si 24.051303099013538 5.592711494356327 23.24340243975573
Si 16.23093441737972 22.581369245143122 26.15909903694438
Si 23.172808368558446 7.40926118399886 26.36288204356769
Si 20.394757382534596 12.207344348036688 9.44235652519965
Si 24.749499586060434 21.282115488531765 1.627467678215111
Si 14.074372106140384 3.0580894457928376 13.387431673791106
Si 24.40113407150003 5.688354956147992 25.835377182954677
Si 15.371450336946161 27.18135328486896 29.11490024972619
Si 6.039353466221509 30.843514097061064 6.201741397857247
Si 13.057683158911843 30.14839952618716 23.754890226348458
Si 5.325358089039549 11.740802785133175 25.427280451292884
Si 9.430886195017555 27.54555864923559 19.33419372387219
Si 26.761761391942326 2.266306458558604 18.027771223185383
Si 0.15443840462752126 3.745750113144508 21.267631452990113
Si 15.99907536559605 5.21361957050106 7.03046518896802
Si 20.96766008451073 3.497728504704237 7.236393486365106
Si 13.958378137079459 9.705488540781069 27.48319489000394
Si 18.757447166760247 8.19600799598312 16.368310924478987
Si 26.594617738879602 27.27294764854732 0.4719785154793919
Si 18.649097175805107 13.12731030112294 28.054010190769
Si 5.582300629061207 16.153571140807305 30.34805617130793
Si 0.12766635763052572 0.2450793961374429 30.876288700182172
Si 21.798153653972754 23.08580946395056 0.9960029455047139
Si 29.225334395632572 25.39397405038427 9.35532256574979
Si 25.30088264355507 30.357025905736464 27.82152387475297
Si 12.356508523532026 18.621008817753776 10.09965902814653
Si 25.63482257919919 9.615109160886485 19.77780773771236
Si 33.23191604979713 20.455082931616584 19.394088512811553
Si 0.6942004725578175 1.3096734618341037 23.96118364569512
Si 12.711507463515177 2.5149433455783905 20.02945687280497
Si 28.11481853132923 25.106469336835325 16.071143718305414
Si 6.778927089593751 9.36785139788158 6.903512403199074
Si 5.458645309994542 19.033203358720463 30.48770913300425
Si 22.102864858895913 33.83430468496948 23.17639825831815
Si 7.352020043787292 32.17004675588799 6.872637871577844
Si 8.909756268262345 33.47986887985931 26.45030526511924
Si 34.41094312965952 3.2457953130247463 2.014627141666317
Si 15.930095768287266 14.655183866715959 23.786613156818664
Si 16.965294041582105 30.538042083468806 11.536821237578875