#LAMMPS data file via write_data, version 29 Oct 2020, timestep = 10000

3000 atoms
2 atom types

0.0 35.1 xlo xhi
0.0 35.1 ylo yhi
0.0 35.1 zlo zhi

Masses

1 28.0855 #Si
2 15.9994 #O

Atoms 

1 1 2.4 32.619657774237545 6.829623763255305 29.00214060986462
2 1 2.4 32.13325410454434 15.449376940954485 12.554896778562183
3 1 2.4 20.915581649265402 14.917696787178986 13.40680746783765
4 1 2.4 24.398258931246392 4.1152190788749765 8.432655236882608
5 1 2.4 22.183115254309044 1.7076599299096078 6.404863504875098
6 1 2.4 26.30020817248764 2.011524789565796 20.300188021368044
7 1 2.4 1.437782893995718 21.390247378444577 2.1509106696999964
8 1 2.4 10.229585315434152 15.552225946686919 12.033187529601229
9 1 2.4 11.270554008326435 12.18721408981499 17.43971642424904
10 1 2.4 10.358804962640974 3.1388661943974556 17.231593033774338
11 1 2.4 27.180150470460497 20.12556538547061 17.86750615842463
12 1 2.4 32.653641083475286 19.659069338069273 12.470901801158082
13 1 2.4 13.56941782117102 11.993641108873977 31.535961791189315
14 1 2.4 4.928048172584128 15.64245055417001 8.895630232754925
15 1 2.4 14.399377242031502 8.558366533474944 2.5680749991759386
16 1 2.4 25.07821112806008 22.941174085293024 15.365398213259866
17 1 2.4 8.530780788418404 18.88377651691732 28.301157757188264
18 1 2.4 17.252619064015573 20.413824712897085 32.7679593575783
19 1 2.4 16.97597981326381 3.676099621658913 27.54949121381161
20 1 2.4 6.05488725216437 21.700562696249385 16.767169602120497
21 1 2.4 27.274784035642103 1.2142835262787766 15.681773991973197
22 1 2.4 34.9641711506833 13.301903008845944 1.624091975116496
23 1 2.4 4.982613536231409 15.49763977296511 26.39230201370423
24 1 2.4 20.591552051186024 15.435118559935924 25.418053774461477
25 1 2.4 4.157397507974077 28.10687897481137 6.639180019196897
26 1 2.4 17.81977366097642 34.308862063170196 28.737365466693394
27 1 2.4 31.931699094890813 14.701642370369594 33.77027739522797
28 1 2.4 26.70503620239401 14.045357540563971 14.498558061653872
29 1 2.4 4.965712176407991 11.86436679370788 2.8352425977321962
30 1 2.4 14.503750546181829 8.805846622559043 4.269985573807521
31 1 2.4 19.013241451115285 11.850429139310693 14.22784966899987
32 1 2.4 22.776029405894125 9.30532815806344 15.69932384060438
33 1 2.4 18.2498931288926 5.586185367073247 18.79743410223847
34 1 2.4 21.03494750424799 27.50210487966745 6.533870877419705
35 1 2.4 34.37022468934754 16.7687725391129 2.06566171596841
36 1 2.4 10.97333875089687 6.7156397410931845 17.726204383029142
37 1 2.4 19.16687065789015 20.689023104706205 15.380291508311268
38 1 2.4 24.67609941992475 32.406367340545685 0.6846258255809272
39 1 2.4 22.247719717897272 9.177764261631896 19.371098942348294
40 1 2.4 22.56483607943082 4.747693546913529 10.43867511630977
41 1 2.4 4.8877681944431135 9.10128257596199 11.558527836308647
42 1 2.4 2.310192786852571 12.950424345278837 20.466247640127857
43 1 2.4 31.798742425710316 26.055627775240524 27.344616171165622
44 1 2.4 1.512728492527692 14.213244580851335 30.42954266220913
45 1 2.4 29.280918993772787 7.996178102552335 31.167962496612024
46 1 2.4 13.199656853830534 0.3938385452644343 15.975598016048476
47 1 2.4 31.423658519076096 3.295400995385643 10.728111609987801
48 1 2.4 33.7270094830086 19.223572689015533 30.841331961451225
49 1 2.4 29.894752485642282 27.726543386189874 3.1703537874911176
50 1 2.4 0.37246658555030393 1.2831264746372568 23.144128550132635
51 1 2.4 33.49340044517689 14.773702136784015 6.969001471161436
52 1 2.4 33.5098992705549 20.421906104662764 20.67847345841197
53 1 2.4 4.719327303668093 18.6712326963691 6.341315651995345
54 1 2.4 18.035330783530473 26.622766136574484 5.614924421903809
55 1 2.4 9.117298427480538 2.398292997884478 11.528874057714352
56 1 2.4 33.38064158923463 22.96003802346816 0.5609787280018462
57 1 2.4 20.64546579280788 5.881287752632154 7.33708810534393
58 1 2.4 10.984055551663152 4.050421693739466 29.214453354337817
59 1 2.4 4.06836971775569 29.98554483180573 25.349452070591727
60 1 2.4 34.78450824318724 25.148940029069074 27.2968774881212
61 1 2.4 3.8237407181407406 24.534145908029355 16.046100065572023
62 1 2.4 20.311446341306997 29.810423670789337 20.591203878006468
63 1 2.4 13.281269136753883 25.96712825115334 2.565474310668372
64 1 2.4 3.4919105042105523 28.902331390984607 31.790907025090274
65 1 2.4 28.493146243369946 23.392198661016472 13.856503471840707
66 1 2.4 10.517873634466136 18.832567147627486 16.205198337015883
67 1 2.4 20.595091262117805 17.081640287878688 13.207091803407634
68 1 2.4 18.741018945787957 31.533447552187344 15.270822126655107
69 1 2.4 29.72119681212045 30.613648832481044 33.924417666834245
70 1 2.4 27.951351485366885 9.210603687952707 3.6544907992779074
71 1 2.4 16.916779399069206 21.28797340616751 21.298867492951373
72 1 2.4 14.380193352848588 2.143056914139132 16.10516494858887
73 1 2.4 21.59059062754222 17.036472548498423 22.595258867812095
74 1 2.4 29.094220104095893 4.555281861460713 26.58773243154045
75 1 2.4 17.32968759194817 5.526669205985065 32.88956132834896
76 1 2.4 10.701956615480977 8.560152179063943 14.345320873272184
77 1 2.4 26.275594408782272 17.393784066496266 3.6536840803051933
78 1 2.4 0.9547976541162397 12.710386767109952 7.002138517590244
79 1 2.4 23.271466027655446 16.723418426748957 26.5864920980617
80 1 2.4 22.996605894432523 19.62321722788941 8.66376231339594
81 1 2.4 14.41478560561813 17.205763831686863 12.172972451459705
82 1 2.4 3.2962138044279676 19.31159645785349 16.989172722784986
83 1 2.4 20.907328890577684 22.649067431385674 6.575974325385547
84 1 2.4 15.635864287823368 10.605149611944489 29.580325581556476
85 1 2.4 34.5621191074822 27.4059089047736 12.405845381757112
86 1 2.4 17.001727911881687 9.99683115789665 7.708691371061795
87 1 2.4 0.7115080790844163 24.534936200108294 0.3706353144081909
88 1 2.4 10.959131583255031 15.556947455707471 35.08858682687595
89 1 2.4 21.64005327517389 14.880016438841931 9.374966717461488
90 1 2.4 14.188182836790995 24.610173835856124 6.1122925310298974
91 1 2.4 18.130429882326418 12.102966773605065 2.6733659371802756
92 1 2.4 25.2511793956102 20.70106188612141 12.697462969854566
93 1 2.4 16.443864923198774 25.774887162588215 14.274255441354827
94 1 2.4 5.91244339862433 17.229710330951328 24.10860662392916
95 1 2.4 9.261844365865588 20.187682800648503 0.16239342032870027
96 1 2.4 29.189153144488007 28.030121184805644 9.648923311030726
97 1 2.4 2.467809953408464 0.825577500249212 30.239484392022195
98 1 2.4 0.5497071085762949 0.9117886961191053 16.088958707556696
99 1 2.4 31.541161696872557 13.467180210597748 21.563626993314195
100 1 2.4 28.254502306484675 3.6980709735835537 33.25766964490523
101 1 2.4 12.731362178094667 26.879714783770755 6.0328798686892675
102 1 2.4 12.768913650854632 23.412855571802925 6.290121261379262
103 1 2.4 16.306170710634092 10.648378456536737 27.795919048785663
104 1 2.4 0.5371823225735846 26.980711351771898 24.235975075795498
105 1 2.4 15.702026915714622 34.47490755409093 3.2647507059067395
106 1 2.4 21.28497254995028 30.277220897625554 17.651603503990067
107 1 2.4 20.962008006291875 32.97796103244914 32.54504385476214
108 1 2.4 20.476155258568927 13.69965771930024 30.37854499462165
109 1 2.4 17.650343145603372 6.056221709772764 26.04314935596788
110 1 2.4 14.73981000109845 20.194909940731666 2.193193602128681
111 1 2.4 21.15210324916849 30.71139714635865 15.543306776745025
112 1 2.4 27.296075642237536 18.809032524857884 26.382421567892333
113 1 2.4 29.32273257993317 21.867489426312474 22.42509079160169
114 1 2.4 19.427024763698075 7.836301784542432 8.129028809199937
115 1 2.4 27.391270845015693 12.243602780377064 26.11359083905365
116 1 2.4 23.603351814210207 33.73056854709519 19.69392760569457
117 1 2.4 19.191960094397146 4.05671335863157 29.28953590323731
118 1 2.4 23.61881007293235 9.939976515340941 20.521925192727785
119 1 2.4 22.797626730366517 16.07818589778816 8.514334910416055
120 1 2.4 30.467123304702316 0.5507683000832572 2.7524238310820333
121 1 2.4 27.220320236253293 28.169218088438196 30.09459865657154
122 1 2.4 5.242612442310172 33.84354845880844 10.492528277287695
123 1 2.4 32.36487797900203 27.86565979337088 26.88154633166888
124 1 2.4 35.095739303011776 10.011563095884707 27.253115654623556
125 1 2.4 7.635161876291094 12.7187269177616 34.42030436078801
126 1 2.4 13.51004581161566 28.09028070472466 26.5367161803233
127 1 2.4 24.749577738979635 18.482300604367435 29.628091736092326
128 1 2.4 6.888031177908971 13.87678788020426 1.3652211938581678
129 1 2.4 26.976909080284177 26.8143227060384 31.923655771965855
130 1 2.4 20.453991049685502 10.644390010173069 22.321754717223186
131 1 2.4 1.4761649516750246 10.12388531280449 10.43045017461737
132 1 2.4 3.826670900667349 1.3363652545295661 13.715941932102306
133 1 2.4 30.518502996528717 19.866833191115838 4.7177550199760105
134 1 2.4 12.327777192932077 21.626734032753713 17.640279442317993
135 1 2.4 7.450050774898733 9.008035604659655 2.415813169233404
136 1 2.4 21.0105121542859 11.039105268342448 13.251472430374575
137 1 2.4 31.627217045420103 23.475755344774452 14.666074850495923
138 1 2.4 8.203672176074809 33.55615754171027 22.230380706933456
139 1 2.4 3.2825946146056193 19.89527174160111 15.707183934812697
140 1 2.4 13.135699964363177 17.668829064477425 14.357884435691235
141 1 2.4 8.263919102257617 19.41255443933062 33.590465415021384
142 1 2.4 19.58058786419044 9.965319696225857 34.31713811249253
143 1 2.4 19.845106509757432 21.833507288270948 17.058554074303466
144 1 2.4 7.454399691957189 15.388692302245007 33.122242068901976
145 1 2.4 12.267059726629784 17.26972755877138 16.715742566970892
146 1 2.4 12.63736221871257 6.1084422201204465 29.47551051884263
147 1 2.4 28.691658122159296 0.1494100697256102 8.050403792881394
148 1 2.4 19.90183127878483 34.18635150310343 26.60792840529239
149 1 2.4 20.257839065052277 34.871599710813626 34.09396026496241
150 1 2.4 2.8605070192294604 32.766559665556976 28.437828165241232
151 1 2.4 17.367550939089796 0.5432248750665547 14.567605341604828
152 1 2.4 9.275722123821817 12.744271888658295 15.409370038327623
153 1 2.4 32.54812574546439 8.97101510097995 25.80958698938803
154 1 2.4 24.037874981892216 1.053218712013078 0.8504554993233374
155 1 2.4 2.25464391316699 28.27821435684694 32.51819703891648
156 1 2.4 0.9296677292381493 15.072697691229951 32.56124389005699
157 1 2.4 18.65296260755054 32.28210343705064 22.151056135426042
158 1 2.4 17.837329575818917 28.76500143355127 8.23695700922125
159 1 2.4 4.216908479255903 18.01758367721171 33.56399458011815
160 1 2.4 16.25843113070813 24.98806009239053 8.571285922405718
161 1 2.4 20.795541603552284 28.111820434739993 7.942215431755018
162 1 2.4 8.065970318498476 22.895647832465674 12.896965319141604
163 1 2.4 20.30207897181802 31.159077375087865 18.19418544427766
164 1 2.4 30.34157296745852 34.134367734690734 19.156567010561723
165 1 2.4 0.32831907992097253 24.836990326113945 1.157182707946473
166 1 2.4 18.38849198466995 3.157704194892209 7.496878362302064
167 1 2.4 22.304333874209483 3.570991509192523 25.989801501498157
168 1 2.4 3.920855637976114 17.691216967439978 29.277509734178437
169 1 2.4 34.00702955419135 3.654840804812089 23.362987572336532
170 1 2.4 27.16158218579274 21.01654879876423 19.89731197707436
171 1 2.4 18.100749221330084 25.89422508866975 22.655767050458103
172 1 2.4 24.246472079438185 18.745772111110394 1.220486987703997
173 1 2.4 3.1386663793426983 14.916127834591672 31.657364846181384
174 1 2.4 5.891357699332181 17.59679815016464 10.469548139147985
175 1 2.4 30.305549077724134 28.883107718206045 10.607972212426585
176 1 2.4 26.686816244875416 12.199780999510194 7.746727186806317
177 1 2.4 25.71374516944799 1.8755002581699862 29.257160738162156
178 1 2.4 22.07064530718736 33.956679261397234 31.862649179416714
179 1 2.4 6.488500480848573 20.12488033725552 4.250086395302558
180 1 2.4 15.057950999566511 18.05057286468676 24.51887614677261
181 1 2.4 28.916165174206984 30.67610208769293 28.892022982850985
182 1 2.4 27.049027820587938 20.114206651181497 9.658937663002433
183 1 2.4 26.83517010560415 7.7184476256411045 28.014404911665522
184 1 2.4 4.047521851469568 34.40873839246374 8.597528489770022
185 1 2.4 6.694797900334485 15.59716230611708 21.261473351440788
186 1 2.4 13.41614206014903 22.030080340366407 29.662086196029698
187 1 2.4 21.430484942141227 24.302501455992786 30.941772913708476
188 1 2.4 0.2605004613796698 24.53257090531407 19.31775645591223
189 1 2.4 35.092309221106575 16.498139641670157 28.2281653123711
190 1 2.4 7.165049962478814 27.812660592122366 25.70766770964473
191 1 2.4 17.898990889036522 13.783223840732722 16.956431362815426
192 1 2.4 7.371696928138483 21.781061106917008 13.665837881327729
193 1 2.4 2.6964655223966423 18.928051618220344 31.109541293985764
194 1 2.4 32.57831643588625 21.493348945699335 25.739347703932445
195 1 2.4 19.66390609922115 2.3576410103596626 7.273201806626371
196 1 2.4 29.15313173158674 17.842503453958134 14.333726041622066
197 1 2.4 1.08049522901938 25.64110498441381 16.69895609352181
198 1 2.4 29.46920347959465 13.479871492896475 4.311934550311396
199 1 2.4 19.435216111186456 5.885086297807123 34.85960305684838
200 1 2.4 4.876022822776697 22.893572317467598 28.26659884867233
201 1 2.4 9.47140413641778 5.373060942707947 28.579064520399303
202 1 2.4 21.662417249593183 3.6872774370426264 13.239167003066495
203 1 2.4 1.7712229893655318 20.557392934798873 1.9490124940708846
204 1 2.4 23.0277157136144 32.545362514600534 22.94530754938031
205 1 2.4 22.37176735992251 34.16556750444462 15.814915714829686
206 1 2.4 33.885628435106504 9.081416251707058 8.75904982606092
207 1 2.4 14.693441377074226 15.830653825892734 9.604791389870911
208 1 2.4 1.7071446593551722 29.333307037124705 13.376752586298114
209 1 2.4 16.50633229021626 28.14142120019808 16.519576369785163
210 1 2.4 33.49774572952473 22.525029843945 28.529807636764865
211 1 2.4 0.7418018223070326 16.565364450358313 16.459111617387908
212 1 2.4 18.27430118912455 7.413481837914049 9.830761003299756
213 1 2.4 3.9417571172234074 26.42732631039449 26.257127954662952
214 1 2.4 12.587802132411307 13.648065295213527 13.998494604878186
215 1 2.4 21.407530907029034 3.4445632424388823 22.67096781295491
216 1 2.4 7.325218414297215 1.1087597527175523 25.47204508682804
217 1 2.4 9.330077946779616 33.56341704482964 18.36665928945677
218 1 2.4 21.821766499884735 24.464954237910973 10.558432123436514
219 1 2.4 16.134477259289618 0.3764024716792993 8.018526172032423
220 1 2.4 20.23220665236602 21.390385999496324 31.426464643529116
221 1 2.4 7.926934282022946 12.077375491998417 5.682140127019254
222 1 2.4 28.69031580963511 6.48287868554489 5.270392293349165
223 1 2.4 17.13426939343058 13.340785084173078 30.914884633886405
224 1 2.4 24.75825393462504 2.9144762059124507 5.753181287838304
225 1 2.4 17.882629764574958 14.258900424314545 30.191891835901906
226 1 2.4 29.110021428473182 23.187961053083725 19.033676830787446
227 1 2.4 8.707066481452419 25.511041961706937 25.085574464573003
228 1 2.4 16.480549097826785 5.799533613003322 32.65466286140876
229 1 2.4 19.228179978941085 4.100902049338855 10.061078516666816
230 1 2.4 34.833709803669024 25.744197892773407 23.01768281553178
231 1 2.4 12.565989328134187 28.113629016401294 17.319104994895454
232 1 2.4 0.7954995132596329 11.429918181276856 33.13981034464425
233 1 2.4 27.89994516768085 22.449187145496012 5.220588989662641
234 1 2.4 31.274543621266332 14.342640257106602 15.460910092086378
235 1 2.4 12.176018273304894 6.416808823525068 19.792753365442668
236 1 2.4 14.889735960998678 7.979185915435026 22.12521355607322
237 1 2.4 9.909643600110638 22.571562692239407 33.75598545571159
238 1 2.4 21.33863468108391 19.138227749397426 30.085710458101058
239 1 2.4 4.408733829749916 28.105201020664 15.450216662594663
240 1 2.4 27.103609200705424 3.4122004208212573 11.12858377079789
241 1 2.4 19.99246711215846 9.582718644330834 11.017943260833395
242 1 2.4 2.9847908127292455 30.321552225961202 14.103313946977057
243 1 2.4 8.999006283732216 32.56871242815853 29.414332671235535
244 1 2.4 1.0916274926095109 21.24839085130025 16.070765246472426
245 1 2.4 17.060048931780408 15.06386768351167 19.800030679436958
246 1 2.4 32.403924469031246 17.21049886420777 23.8617364061221
247 1 2.4 16.401720944818788 19.232696240914695 17.305667028099762
248 1 2.4 5.0020621256157884 26.05422427581758 34.366513171875674
249 1 2.4 34.47062231135415 33.34314925098092 9.898239519801226
250 1 2.4 32.634927400405324 12.165519998266358 34.73230922620188
251 1 2.4 3.235982832012413 4.973167174013553 17.252614422917286
252 1 2.4 31.069040175018273 17.156574714921806 28.61391967532485
253 1 2.4 27.893992764724796 12.380688372199051 7.308508172975723
254 1 2.4 9.551855994254199 2.868641548383878 2.3577405207998026
255 1 2.4 28.156532858687907 2.020003568320578 15.368342374182607
256 1 2.4 30.487601244063175 34.13359276203972 1.3499198438615285
257 1 2.4 33.31832014716483 3.1322608632445053 28.98984612321756
258 1 2.4 18.127794334547023 30.50345781472758 21.10990780287503
259 1 2.4 29.22942146773372 2.392767460344825 27.319216924567343
260 1 2.4 0.25773025892536783 18.54812556868709 33.56037302445998
261 1 2.4 13.216236359848626 29.236193104954285 20.951731551333673
262 1 2.4 18.053158788653853 34.570504384654434 12.841924104783441
263 1 2.4 11.00072496478302 20.32669399986724 26.35694297790025
264 1 2.4 18.665677503898557 13.262607256050128 32.83468207600976
265 1 2.4 3.7750787798871346 21.27800978020448 10.172724163226516
266 1 2.4 16.483507107797127 22.49098040134784 2.904585792425143
267 1 2.4 5.093320570230116 16.599113486011877 12.108048836379876
268 1 2.4 5.982748618505747 32.494124374322936 30.570631045275654
269 1 2.4 19.245737766039497 17.840447959017656 9.718563605208283
270 1 2.4 34.454664136802805 6.606135803421015 34.411805131594015
271 1 2.4 22.270792184658465 16.13134745227221 12.626365157042319
272 1 2.4 34.44672191304599 28.44622069810676 15.94599991809574
273 1 2.4 18.89873669367644 17.592019466397353 11.6575071062591
274 1 2.4 16.47583161665346 23.6022908454297 32.74358133180024
275 1 2.4 3.7964965407253324 23.035658133737353 10.220835384733704
276 1 2.4 28.692136704251933 24.497309072726857 15.818381191441945
277 1 2.4 20.781903975609005 27.57322700747813 9.531910349720564
278 1 2.4 2.482869777974451 34.80065403573202 27.499940108037315
279 1 2.4 29.785784368292944 30.075327870449076 12.543902214577688
280 1 2.4 25.65454565055353 3.0709530206451277 2.1420605832961632
281 1 2.4 21.741613712879268 33.05139456730852 3.832036775146393
282 1 2.4 35.05939399522464 8.181218605909764 1.5730344814915203
283 1 2.4 31.779537292841397 8.471956748639888 22.794652447262255
284 1 2.4 34.342567757405625 18.43032204199826 34.234794499673136
285 1 2.4 26.058617525829874 33.43918031760479 7.094864096449521
286 1 2.4 15.494153565389311 12.949160706967474 2.771743817984025
287 1 2.4 11.002456362847278 22.45115636538375 19.472253489594085
288 1 2.4 23.91053983067454 20.110360915698163 3.6719344590602536
289 1 2.4 5.686900664531819 11.648205816041829 10.42363214859312
290 1 2.4 32.503707238375945 22.16257324186284 24.692731573564128
291 1 2.4 12.825757600751672 24.41237005238751 32.39609778960236
292 1 2.4 32.89921961723773 15.833232193378374 26.546993239104346
293 1 2.4 8.704968117094536 10.649654707996971 13.403697106923932
294 1 2.4 11.039393603660908 27.045958263621642 5.582969590282129
295 1 2.4 25.34756099394281 26.760819102040042 10.03303771237937
296 1 2.4 26.44967902743138 25.892631457217004 18.982599357456213
297 1 2.4 12.064740589032937 13.786379248916841 2.238964563371293
298 1 2.4 17.22349284519534 19.853978858040712 14.162783680237442
299 1 2.4 0.43386086227468706 6.278591295661762 14.249783100134653
300 1 2.4 13.510698923097909 3.0355792933083854 15.810743253409855
301 1 2.4 0.8104311704988105 0.9560068261489599 28.927883989968873
302 1 2.4 19.54621171410674 26.24780346319757 17.73620088576677
303 1 2.4 9.554627011376233 17.211727098240715 11.436870572870571
304 1 2.4 14.263052675109654 1.4912081608915455 3.972697522232553
305 1 2.4 3.8081005358796967 24.163567811158913 3.9616895038129867
306 1 2.4 33.04245435051146 20.749330914177094 9.888995522811072
307 1 2.4 10.759376196567032 22.91664194775164 16.755299333969063
308 1 2.4 1.6680739476157527 18.206679338865413 21.536219653239428
309 1 2.4 33.24880369335411 14.002809616248395 25.417688902440638
310 1 2.4 5.674659808317047 12.31170810415592 27.791455050734687
311 1 2.4 10.2350368372697 28.29750389832067 15.690108644817451
312 1 2.4 7.407792629636931 14.293106874852786 30.736228962892167
313 1 2.4 18.691135519039705 29.271860494139514 7.313007118194885
314 1 2.4 1.5871103793037524 27.87195256813787 34.4422716109776
315 1 2.4 12.10676792302948 2.8438726631087468 29.67795308654209
316 1 2.4 0.6410157565820295 2.082428040741793 13.548661574118155
317 1 2.4 30.575704512249978 13.903846064703972 6.023409846144516
318 1 2.4 5.8817618064344535 6.102517425607005 27.34472379957118
319 1 2.4 21.946332791121822 30.762534048934757 23.82785948139147
320 1 2.4 30.80595589178297 30.08382917030951 21.39487061928886
321 1 2.4 0.9313846361004073 26.882178441742333 18.951451710555087
322 1 2.4 20.48713229811112 25.37403268162954 10.346627495415547
323 1 2.4 7.520775326575684 26.596917658052224 32.76558252865112
324 1 2.4 23.232233686647685 8.483714000563795 18.4051882339866
325 1 2.4 13.565182945907958 25.092360364287543 12.643034989889491
326 1 2.4 20.32653747300235 3.625080993414737 21.977115651390708
327 1 2.4 22.12174227608724 7.655185197600327 4.64400003361113
328 1 2.4 18.79095676465733 32.33110229752089 31.695945965754053
329 1 2.4 2.8902970771324954 7.201263617448308 13.862975379335392
330 1 2.4 16.918590923197538 23.98273871732769 32.53306362148949
331 1 2.4 5.022009391303734 11.464873994645037 27.597183096424967
332 1 2.4 20.19011238870973 1.5691684445478218 8.230404947282393
333 1 2.4 10.187099156670175 27.243792809057577 22.663480974779777
334 1 2.4 5.024279988449753 28.447432408481276 18.59299820942782
335 1 2.4 5.1550741767306025 29.991896056714104 19.455573886420236
336 1 2.4 8.746923281844753 3.3025141824162074 30.76510275322031
337 1 2.4 24.267905131825767 3.9180706025298284 17.860710619010266
338 1 2.4 29.999261302571934 14.720774232000032 20.982214661371888
339 1 2.4 13.144941617268975 10.442126209438507 26.092140161716816
340 1 2.4 6.785684628968056 5.309767690826629 9.545801364398557
341 1 2.4 32.7131765946482 20.02760121107377 12.020856204858447
342 1 2.4 31.330831785276814 15.980742088055226 8.991569210531754
343 1 2.4 27.949229335958616 16.192431937854867 0.8008418433643634
344 1 2.4 9.344048622695757 9.078129747226402 6.750978421639086
345 1 2.4 0.502769527391138 24.518786209510065 20.395711020526605
346 1 2.4 3.9299132289597005 11.132268152251616 18.067526054743
347 1 2.4 2.932616510802542 32.327710730884434 20.925045161538847
348 1 2.4 13.782227799824986 6.661500814898106 16.31444712873945
349 1 2.4 16.170285788091814 11.73464819312294 15.312597037322229
350 1 2.4 0.6161781636540143 21.15061761532525 17.807293733992935
351 1 2.4 24.00168184362169 9.78664823817875 34.86254351207299
352 1 2.4 23.360032523170354 11.689678066723328 20.53056051792422
353 1 2.4 23.035656725236066 19.908335019007396 20.665003994165524
354 1 2.4 19.128778184074182 30.19139197885409 4.179266732143939
355 1 2.4 11.209138961604438 12.923639556444744 21.940930234856594
356 1 2.4 10.599501972159542 29.93341740205207 23.920628838119082
357 1 2.4 1.2905062195529384 12.786438263881415 9.922156944974688
358 1 2.4 26.860031118381425 11.72951105822903 5.834320270309214
359 1 2.4 15.57309640529574 32.8444060021092 24.038291918841903
360 1 2.4 29.716267091067117 28.887381577716862 11.573883031584083
361 1 2.4 31.54181471051037 2.153881921746236 3.446403909712393
362 1 2.4 4.006382553242827 30.392173040756894 32.23929721228307
363 1 2.4 25.883244825522553 19.969499245731193 27.363681784772055
364 1 2.4 0.41029440049424953 7.813525643048981 23.255070368325594
365 1 2.4 3.957991004910414 34.508944006973834 6.487389791932088
366 1 2.4 26.62388486408821 16.300745738838078 4.627215851072157
367 1 2.4 13.98749312880349 10.155229325379926 13.894991272285171
368 1 2.4 25.980953297398315 2.5754785366736757 2.229296720340882
369 1 2.4 27.78208113967995 4.22402126715432 29.20233443315823
370 1 2.4 23.80949680594394 29.348350361804513 24.42504384973504
371 1 2.4 31.790515504385745 27.296919922900322 34.321297651505716
372 1 2.4 26.530074112184465 22.440271588513987 22.76979280046892
373 1 2.4 15.763409632253342 1.2222418009644722 22.90121228157601
374 1 2.4 3.4909373384171647 30.37064862783167 29.81183547480314
375 1 2.4 6.501970554243781 34.483403838340124 19.632999613106602
376 1 2.4 29.362491889660628 17.364492224667863 25.503342559288985
377 1 2.4 7.4315573552796925 0.3086130388037894 8.980438832811743
378 1 2.4 8.398057026614936 5.680215219461323 30.208690749136178
379 1 2.4 8.721240741281727 15.62810047947671 8.171685569040159
380 1 2.4 0.5792063775770278 19.331939245801145 30.460660512560466
381 1 2.4 2.3198171093981874 27.16668968270559 32.74878531240499
382 1 2.4 11.614348053825163 16.268516446898353 32.02976088721594
383 1 2.4 22.854101202440745 31.81974555801801 19.151343619645885
384 1 2.4 27.675364697598365 15.406428015803307 10.908785501704875
385 1 2.4 7.119520965774776 4.115117349242624 3.5744582972322534
386 1 2.4 15.57970915880884 17.26020684628415 23.135216584251243
387 1 2.4 20.274419505801728 31.264390325368858 18.41614347426514
388 1 2.4 22.933765540649553 17.141624839556943 2.9656996096230297
389 1 2.4 32.5637378141288 32.933598565217004 31.67484254454767
390 1 2.4 25.607700377622045 15.737856804845128 14.575592791921876
391 1 2.4 10.194307494492843 13.2383918805344 21.44984617575726
392 1 2.4 0.9925625450290901 18.93476786965954 23.75354865260691
393 1 2.4 23.480587421072023 31.49965429168183 20.400469623660694
394 1 2.4 34.56250042520633 1.3147061102142783 2.2258088580852684
395 1 2.4 33.01289566525168 20.092421217439945 6.389111984024098
396 1 2.4 19.085910696380882 9.093142752522052 1.2591132472984847
397 1 2.4 6.319869388501715 25.567895080724366 23.2137693447323
398 1 2.4 9.684757939994231 23.224027896352244 13.67374332190428
399 1 2.4 6.4735864107979815 4.893542270009357 18.543970360295482
400 1 2.4 4.202233506652538 1.0153071478336437 24.57852341465982
401 1 2.4 23.95565606648949 8.944978858149002 28.14362243061548
402 1 2.4 11.517617969399426 18.43363303506852 17.566435113945143
403 1 2.4 13.739050452688666 31.160604947487013 34.48556445790696
404 1 2.4 0.8150554137867707 33.471429103422444 14.186721709760077
405 1 2.4 23.452161864497263 17.99647258981216 23.241657435774247
406 1 2.4 18.274924249732482 34.89568670701164 29.549593445186737
407 1 2.4 20.994421920882886 25.18046649252649 31.135432984821758
408 1 2.4 11.956636027371681 20.371338824782384 23.999211735272603
409 1 2.4 6.1474774279756215 12.473422585055507 3.9371890447200606
410 1 2.4 30.196982882259935 27.691506756854594 0.11421218206936132
411 1 2.4 11.695753689770017 28.132848156837223 1.1059332831631763
412 1 2.4 35.08313347449892 21.875937764294747 28.150731890960394
413 1 2.4 24.353376689102465 15.238841672031993 16.692460757537717
414 1 2.4 11.371321374888275 7.098876378258593 22.63808174356036
415 1 2.4 18.885167726600518 33.94794821167797 30.917959373908353
416 1 2.4 22.518160919639033 22.555037043927207 7.805138133923671
417 1 2.4 12.220828122822848 11.562787813062567 10.033725230282394
418 1 2.4 22.69031550446015 3.1479924093386447 17.394173654474624
419 1 2.4 32.11471683131519 34.56555659486733 26.58423326390202
420 1 2.4 9.94945275950604 32.34897799432312 6.079700570351034
421 1 2.4 19.727340747085314 27.44052327684799 23.10813653829427
422 1 2.4 8.700405342005883 15.829448077850598 9.516299062134223
423 1 2.4 11.340255086037924 0.7182038549069611 34.55302068102938
424 1 2.4 25.475686598988034 12.219492899660512 14.645216615889884
425 1 2.4 23.27295293642009 31.91241695552843 31.42682933628111
426 1 2.4 34.737432117491444 34.42911096703431 2.30350217564307
427 1 2.4 14.422993610223086 9.615020340548659 23.400075549985353
428 1 2.4 15.23603912508306 15.51767910611714 34.97688035855459
429 1 2.4 25.90397451390683 15.028008483266674 19.88035159862502
430 1 2.4 14.032014140752295 7.920334910944364 32.03450050943467
431 1 2.4 15.201830598165436 34.679474856073725 34.65375772495714
432 1 2.4 4.920703881845305 31.12133254318481 26.034543084957097
433 1 2.4 15.666393212037484 12.956439758591186 31.062798053732738
434 1 2.4 24.147164727179536 14.969370595402621 31.400464401920903
435 1 2.4 16.23254651142171 17.714826533859476 21.379950804257604
436 1 2.4 19.01956181188789 28.337793124502795 7.478366989788197
437 1 2.4 26.657231122694427 34.075899990195865 20.131476049543984
438 1 2.4 5.617827468952046 34.224643926902715 28.422287196029217
439 1 2.4 6.67100459638171 0.7933839752216943 20.767733573864096
440 1 2.4 4.005259024273045 26.195318647209284 13.197247860630709
441 1 2.4 1.3750212922222675 14.693070446183981 17.867659710422412
442 1 2.4 23.39684897109299 4.091469309117363 33.392403020518564
443 1 2.4 1.118369896030324 25.881153629474266 10.14975130880058
444 1 2.4 24.574872872530744 15.24235392888718 7.550708128143729
445 1 2.4 15.33560990091538 6.0651170957787395 29.655563698675795
446 1 2.4 27.860636175528505 8.827792592278332 6.510303928567573
447 1 2.4 32.91645018427615 8.096266799745537 8.178583781269184
448 1 2.4 34.134390876952075 2.2262064460255693 8.182100611737027
449 1 2.4 20.409306012344757 11.658752381521092 4.311533838296054
450 1 2.4 28.757608937629918 18.545342109663014 34.32984139570504
451 1 2.4 25.80445221507511 23.52509326452096 33.941160707482844
452 1 2.4 13.298518479978828 23.527428695459243 28.17238807949892
453 1 2.4 15.812920672940518 12.688118451309398 19.567013442222944
454 1 2.4 15.837147331743584 25.139438347723367 1.6637930537397314
455 1 2.4 28.94085185598837 7.852146852314821 1.264503900672101
456 1 2.4 4.729270252960324 22.194592265197773 31.63704421388784