3000
i = 0, time = 0.000 E = 0.000
Si 8.172012691962202 30.73066688334921 22.667787813402878
Si 16.69730516822241 1.745087846749203 10.544674369735569
Si 27.114284688654568 7.744635673928111 15.557797113297328
Si 0.825767061680709 4.264284656376253 24.162506739468334
Si 31.159155862160738 22.645708827571006 18.191281174872994
Si 2.5252980425017886 2.692212730131175 31.633644936149757
Si 10.37835904986505 31.222013820496457 16.725485399165976
Si 20.451466481165394 11.321520458702556 27.64079313407595
Si 15.051401313974491 33.65782795053567 8.553014411643106
Si 25.883079874188326 17.965635723251417 9.270832379570368
Si 20.565947047096376 11.922805229082359 7.727545387918397
Si 7.405205918259263 17.70549495658701 7.157524682014446
Si 4.325502362210839 32.31483841341218 23.740972667406357
Si 4.51806177461823 28.150110667103398 30.722845283939957
Si 32.95992358109852 0.7208591121801985 0.373275913325446
Si 14.948133638072344 7.744063851092711 15.869120538227751
Si 18.343543909162452 27.03282596564654 8.458442691011246
Si 25.754438934876163 23.393037934905102 14.04663871014862
Si 11.822458705704463 14.019053172086078 29.475184934999355
Si 32.440108226518134 13.79757756438847 19.700824295184916
Si 28.291811563972466 17.982562295514825 32.361770644437954
Si 25.81312154166947 24.82186142150262 29.548503787977854
Si 11.95493409243841 2.878702798814914 7.613802488929505
Si 11.970631526114433 11.133947774782005 5.024822422501651
Si 34.793278510964946 34.32980890511289 5.498077980927469
Si 11.066098932242381 14.072096237379867 33.55048707431765
Si 15.392127217742866 6.725846493168548 5.402706924138917
Si 15.861281166356504 13.354932664748066 0.774929178560358
Si 27.22726787388142 29.91473872537433 19.957889100161875
Si 22.82990038257579 6.671722715562018 22.507932045679077
Si 1.4126651621227766 23.539292494127373 12.287405440101027
Si 32.50153295363648 1.0980159416523247 17.26953252984133
Si 12.85992210927611 30.435044175433518 30.034790514233656
Si 20.59975391354386 14.249748664972024 8.577747904538564
Si 7.609672621835224 16.115217987452898 2.4269745819084743
Si 8.927084323028984 16.41185991587915 6.647889923819827
Si 1.1087604597203897 32.439069306242665 34.47977291805082
Si 3.451486451393445 32.53677205451333 6.387606247674528
Si 17.897949854166896 27.688241515843146 21.402762505230765
Si 29.692410980701734 25.265770797509173 5.948546823231616
Si 2.791560447584484 14.26594153463993 1.623191963465493
Si 25.776653867819373 32.26166833128957 11.962102065477142
Si 19.36079388641223 6.625963145128645 28.95633229080627
Si 19.143450972607436 15.095836845850847 25.16585986663992
Si 14.162263429812826 8.000249432215632 20.85315172870272
Si 13.972545053311691 31.612802133576608 19.228041963915278
Si 26.782247131616455 8.80053770785304 32.7283182032578
Si 28.29687020856569 10.80098093019098 22.035542665693228
Si 18.95688121071878 9.707777807059497 31.50907132757062
Si 22.464960548142216 15.948957122169075 23.569352128180192
Si 19.958089752075757 28.09560765568361 2.226876006424533
Si 11.186987803821097 29.0114216231983 24.791089403752427
Si 30.35059415505575 0.15234991388107189 11.231978630956537
Si 3.294131476186409 24.74781048579424 4.307113493672718
Si 29.695603759072718 2.1194256101331055 11.83192685500817
Si 13.341452652290451 18.32180854755716 2.4996617886769075
Si 32.17055405149726 19.686094500609286 18.021697525906298
Si 3.854554181157315 26.81047874475711 7.312850694522795
Si 5.364442638680781 1.9348602231613654 31.482437221084012
Si 13.869644739175246 3.22206438718438 18.94859876344816
Si 0.8927148720131262 2.691400355914208 17.069888090251112
Si 8.102424457883892 15.736216462419726 9.980289734123675
Si 30.815706429903383 23.500138825641148 18.08542366982457
Si 6.67404961153816 23.490517350782987 11.671054036766227
Si 11.028427533686985 18.551323564089575 16.48296853446683
Si 4.844892211261906 32.365988158971845 17.275879827496812
Si 23.518382131774295 26.51763312306302 22.692321413557167
Si 27.223497766837493 16.321846188275252 22.368305204324848
Si 15.369029773197202 7.5837791250764175 32.56667335022642
Si 28.395796814839755 25.600569078641414 16.630674840045522
Si 16.770302872816643 30.800466467446483 21.232268240426095
Si 21.61525707929932 12.55068432190669 33.80668953756949
Si 8.48212171507755 27.05573862238141 9.521659826397718
Si 3.672992445984652 28.796637103503905 9.331551135804451
Si 2.9918053558704405 2.6411243106456532 28.0570885550661
Si 24.862158876061088 8.684072927667309 33.459127779174665
Si 23.21777828438045 0.45620014733543585 27.157622221919933
Si 24.6162437688913 31.651946926983204 24.741343078214573
Si 17.41335553089436 18.468939770309586 14.115327026081136
Si 29.505395330976054 26.954471586348095 1.1325481042468317
Si 25.578700703445172 30.702505172005996 31.599814619656243
Si 15.808257565669203 18.872047362693888 22.735257478287814
Si 17.288343480675394 22.398322241243967 31.060359966978808
Si 19.745694325779947 13.720901001528455 21.10079253871947
Si 6.478538923341455 34.046501064197614 7.847854665632805
Si 18.99787166321144 22.713672270388546 32.45965067335306
Si 28.56894768718856 16.022403314676414 24.38319236403187
Si 2.574840897330505 11.572279102649123 16.949258987189225
Si 2.6649626726514404 8.197871381559974 31.747351720669737
Si 25.04162966196147 5.759420837506742 0.09486625972318914
Si 20.664159103272063 20.116730694201614 17.76239761239377
Si 1.8369714682840588 21.293453475701938 34.136681754477735
Si 1.3750636626864388 7.053586110469592 27.114464209229933
Si 14.373373571968644 5.397557272784496 33.95056156421202
Si 3.3677135446635367 20.4923700397716 4.0767848287803705
Si 0.3810298703285766 13.22466929225049 1.2174032952930867
Si 2.8580366020581587 26.712909378398862 3.1781399942369832
Si 8.130698721265913 10.830322838360795 25.242196687056808
Si 19.350250349969706 1.7909778427794647 30.50310643610695
Si 0.5392732057934031 7.595170936066938 26.480515016722702
Si 33.86287834633332 34.825336152095296 29.569011352672188
Si 2.262188379291448 5.302470940642133 5.475476337575571
Si 24.129977281511575 16.23020557826106 7.674970382884918
Si 25.758947649034482 22.242021767055007 8.504362384619087
Si 8.534352019844187 10.360383896640776 11.690742176072247
Si 13.307363912918195 13.226018693569179 13.303349308051951
Si 34.311347195297515 25.475431228531257 1.2248375385936685
Si 4.638417590327751 33.12046520270011 30.90680832421176
Si 15.75313793243679 18.98698064279131 18.29365114555841
Si 17.86660654509799 16.711221785911736 0.03512014625712138
Si 23.88579804070307 9.350425408487261 24.538762928361756
Si 8.782186133762725 34.36691725065522 26.354931155253933
Si 33.10453936180728 12.15486928095283 17.02039403265004
Si 25.317361189278994 7.5680996747394955 12.84735995264968
Si 16.136844759523573 0.09623640382957035 33.05572669734306
Si 5.772998810406702 12.424757383395916 33.512136571173606
Si 30.12909332477365 11.535865552676588 16.510946383294137
Si 3.9831286936862456 25.174764458447818 9.019660413749895
Si 35.0215722873484 1.043633523889355 24.644787272390918
Si 23.79109110149115 16.114964853676813 21.082103658828455
Si 14.037871823597504 30.970689809345338 26.314146587071235
Si 21.569996253538392 30.3563268119689 3.727232425014406
Si 27.7085569040548 10.950895238125 3.395074645937884
Si 13.636310733275474 3.761821915711409 3.3575084006764517
Si 2.7401873349440753 18.48941248897505 2.6720589957932064
Si 23.64373524737998 12.707352795819572 17.364285915437478
Si 26.662613476923678 34.97361286968906 12.500565793429134
Si 31.3098704916587 23.321191012374317 23.698718170595182
Si 10.602337128609511 32.960348338935304 10.064549497549203
Si 3.072180031741467 25.53949625676985 23.217004007972744
Si 26.344431867853434 6.511569125189945 6.260024590900803
Si 1.0508905559595356 31.05620161891336 23.17446649907966
Si 26.290384594077466 25.09133086640828 11.53040965002594
Si 11.277596566063012 18.580265764843134 0.37738201275603483
Si 23.637868502888367 31.936943282020035 11.650412025781236
Si 16.221005923261597 8.330268695476919 26.219611694887593
Si 14.40697024576532 34.510360414127454 27.842151280895873
Si 27.741610170281152 24.646747268749163 13.417134443768829
Si 17.240264281654408 21.729325174227768 19.708495253149756
Si 8.436722377147861 6.272550034162931 13.830757021988262
Si 31.542600481972364 34.18115270127108 30.876985331577238
Si 27.160156906453388 8.300183084985227 23.441919628384724
Si 29.328860066145914 19.777230589940324 12.203608526684903
Si 18.009620482995707 23.28248450609456 22.15571380273321
Si 30.423295179023597 12.30745380170133 13.351285791245315
Si 26.19586700976287 17.564028929919402 0.3970906823963123
Si 23.47323854118132 14.794266772342644 1.0574917463501716
Si 22.89135971753443 11.12893975713041 17.78791862111883
Si 14.265723741080054 16.5233910300917 27.002938384405308
Si 12.400081345181697 26.65563182732283 29.68825635255303
Si 28.87353530568176 0.7113736082716088 32.68315631405584
Si 21.038842271291664 2.516492289422882 28.971135084523024
Si 2.577679401238656 6.030429634278841 34.410705297758525
Si 14.5973770797874 3.3266631665175157 32.6248038475629
Si 13.300032628773886 31.12893004440635 9.307015185523419
Si 9.22009379501158 24.320290605948355 24.561953305998113
Si 13.34485163298516 31.355285001207992 22.485586846448214
Si 28.97962517822948 18.044740975626926 6.514095380188772
Si 7.974230660965135 28.256262107225282 16.698443630448757
Si 35.053388569704445 33.27587065395981 19.583112312036867
Si 29.21408709133984 7.447016052932071 34.23314152630742
Si 15.549562078299958 20.10567587427654 4.239863949238631
Si 31.156354544928167 34.785335245964724 34.70818757494502
Si 12.874194442603486 33.241617001808685 34.03418167386054
Si 11.529978569689865 26.419219160237958 12.768783375811548
Si 28.92395763258594 29.233892367594354 12.151870528636545
Si 20.71174436264387 8.988527756960307 26.56125433263663
Si 22.228745120791697 20.582913271880162 3.303738721479549
Si 3.8217675139503333 31.32486500571399 8.365101329308013
Si 34.62312481840675 11.476285349517212 29.68075540059605
Si 8.177877185805146 11.813986671999569 9.92876004006202
Si 13.857018987953618 8.324423672342602 25.447158537360224
Si 13.950844603789927 24.972210238272798 10.04493836095929
Si 25.835858146214573 28.672832498776003 34.705354092422375
Si 6.719673649314 26.358558057771138 21.25119581088907
Si 18.650257751053072 0.7669800918686426 9.356826019426892
Si 12.464967785690595 13.31237291054454 1.5151481010732586
Si 19.987550899994375 4.087079497427873 34.44806026234973
Si 28.769649393523483 28.787009606344206 19.957873702088193
Si 15.296396796479055 5.284414088303201 25.39097392701524
Si 33.643554031936 1.094263522690257 15.182625807851172
Si 10.117886091688533 21.472463772916264 28.732406388223247
Si 33.608735337927406 6.955703591263279 21.12751121834353
Si 28.769517705058323 20.442304312819953 22.753601418598308
Si 11.399399644510748 6.63178928189209 34.96326834165894
Si 27.60121683655648 28.26429727098116 27.793733614115382
Si 13.876815457077301 5.3208176577754225 16.44417145944765
Si 26.331015233622878 10.318546256275617 16.0845391077149
Si 4.397580731146314 29.822572154308396 10.9595499944995
Si 2.9886732861603873 12.390977243240249 4.612713764294942
Si 23.52398037816131 7.241670760327126 3.0295372203347135
Si 18.729106234647606 1.6527924938185996 14.645678091929101
Si 6.1121466071958865 5.5146309515261684 9.45242415273144
Si 4.481214462029004 5.7399485228529485 34.75151261017658
Si 15.275912030979732 3.5195605423012526 23.509516241396913
Si 22.63572091683041 15.703846143947912 6.038400202972605
Si 34.34294460932435 13.857836314887976 30.125113591077465
Si 25.52735380689473 30.781865750007942 26.168797021683783
Si 6.8535771564921495 8.733853933399114 25.063488840794708
Si 16.413156885325925 20.410904491319215 31.666580091490776
Si 22.540264765850797 19.28270457855386 5.52912312044721
Si 28.547731550761565 33.429497195974484 21.18212425923146
Si 4.345549345055839 6.916045080605519 0.16618668972421743
Si 31.815938597491282 10.737336426198198 9.808050302174873
Si 9.654508534602662 21.605519562794125 31.291044631787567
Si 2.194543603501043 16.181206539172496 32.711544956098784
Si 24.278930188892613 29.459072592116854 24.461215844579048
Si 6.110085877326078 25.899700253205637 1.0424370881084004
Si 34.983549876698056 9.883291028005013 3.4457591494020754
Si 8.210158597141914 26.728636697888085 27.17387623119886
Si 33.372946864162536 14.246598907779845 22.15717315028856
Si 8.482233787167042 6.5173837051833745 22.338306082815603
Si 7.954800033697615 8.458454814764691 15.075414218308179
Si 20.142758019733428 32.614334904053095 11.374484092719545
Si 12.23329948165158 29.288530998303465 21.66250698883531
Si 15.56595265084636 7.734131783739278 25.17616178258517
Si 5.794501745168223 3.738317562026149 3.751412873141935
Si 27.40638266894968 1.485536171087607 16.40692933840962
Si 31.56170585722639 27.166868397547706 6.99370796830754
Si 9.688871717432741 6.995621820640972 24.168643588275515
Si 21.316934688230155 12.80730792815151 20.841640678130307
Si 34.54490212514743 6.055729865120027 7.21748537784364
Si 31.315611757653897 24.716435676528185 5.596935041810236
Si 24.167414349290247 25.96988952802534 20.703726391881805
Si 34.89247858230262 35.01844675760908 23.9164302924285
Si 4.282016390604733 1.1197740799090043 12.220073100447118
Si 31.447078465832284 2.7502958061163922 26.11396604839894
Si 3.658624747903524 9.825552810883398 13.047388032835718
Si 22.0345058177304 29.288187526896 27.154967019864287
Si 28.088759062091615 16.619796067315466 13.243550511706083
Si 8.242121059974767 0.28398176848850887 24.236145027144495
Si 3.161881223988528 31.19407374054804 34.90518950532239
Si 19.990115114273063 9.019058486389085 29.057711651183936
Si 18.583642762173323 30.901369881308568 9.456032721915017
Si 29.21925392637374 16.636993048836025 4.285957588455817
Si 10.891026960629562 6.053411321753895 7.475840063629144
Si 25.46078580235378 27.87877061991177 8.899282880993976
Si 15.162454902896062 2.997828313174745 31.972464340661173
Si 9.650052868100676 16.179584992468488 34.802675006149975
Si 20.829511074981895 18.566903766018395 14.251223571637796
Si 27.986628434837044 5.536161097772713 18.032444322725166
Si 16.812051898517847 10.825426526076837 4.652335981221761
Si 4.004435235409719 14.593366644165483 24.352536610111997
Si 32.15428565546957 22.26055442981351 20.995558052401368
Si 24.31064780109577 6.644331963745502 20.883658085763077
Si 31.10151725824367 2.1111287933035854 34.085314897980204
Si 17.630287978495307 17.18379313305809 13.035817217433566
Si 25.231345906393106 19.818141936004658 11.402889744117866
Si 0.7379146592723531 9.53684200481046 14.260449098323825
Si 17.723703563148156 3.9407740604538346 5.760089429254209
Si 23.197140735337946 15.804516161421816 19.096451921718316
Si 5.270353355133871 12.819109680147124 5.740454792669722
Si 17.92934294612259 6.211425707009083 23.346515376617987
Si 20.82140429462818 13.00845800197176 9.258798708229191
Si 15.862367237042287 1.8640283660945924 18.165059620718324
Si 8.786394920377502 13.262325348430736 25.319308187180777
Si 12.479180090570138 8.612288613871243 9.456509038227022
Si 25.669246988482858 14.280693114022194 21.10053371108096
Si 3.669108785633663 28.91577800683626 7.118160314213474
Si 13.002684153419853 32.85734620965716 24.63727978868697
Si 23.670079897124513 18.194813232374717 7.254601200162088
Si 16.95506258766611 22.638348115894885 25.26288181499658
Si 0.9763873025428874 34.78761177920587 16.721120274654773
Si 10.765981791689471 0.8183463371498657 28.94974224429298
Si 16.107220439386953 12.720581949546176 14.873959185742214
Si 31.06336448468635 33.458033672943365 18.24171628676494
Si 29.573657517782856 2.2306491296995383 26.248122813381396
Si 21.562920934277145 16.994873352332473 3.4134589326087412
Si 18.60711059725069 16.10244261643728 11.884960557754617
Si 6.620630731996119 7.609266618296346 8.718796166323555
Si 13.730893025704077 16.169712579495425 29.193253119105186
Si 18.564348424533886 7.715044215854171 16.752255064332868
Si 32.068220379392976 4.816038300359114 21.28942922627421
Si 13.222437609504318 27.42276349729146 5.227843029550748
Si 3.017796741376421 22.068551792164833 21.917009374815894
Si 0.19644088297654283 18.73026130824102 14.984697428702464
Si 3.2273542580389334 12.028250031427309 5.114085997222825
Si 22.060281846138746 18.017436228934365 9.297051979602594
Si 31.64331013915087 0.9442493021831301 5.1150772567003475
Si 13.840756874927735 5.002395159313808 34.10401962874396
Si 3.640536276295878 16.620689808511564 9.570573182398826
Si 15.048652301298231 7.329242025216862 13.47557239402279
Si 22.735343386146845 33.41600109101372 6.038898849386581
Si 34.64874643699873 33.62418621595732 10.144429425114746
Si 11.559632377133392 20.193659615716825 31.321251026487356
Si 33.8644712972081 21.9242340971773 1.3665849380643622
Si 9.488331034759415 14.30826097998306 19.078240227199544
Si 28.717367982478 2.246003397111951 2.327850184279748
Si 15.566723948531832 4.263683727365277 4.166321702235391
Si 11.164071929399693 9.373624723814494 30.147126805590126
Si 6.257038106491461 24.626412603209346 27.061869511438587
Si 7.029326683629441 10.900399303441802 14.339313674979708
Si 20.471748553124492 19.726033488943106 25.977516862224807
Si 8.023353530720946 12.451858685320445 29.829379113217577
Si 5.325774388099343 8.866730071282554 15.398715439325427
Si 1.754098379393153 21.292524957776696 4.351576361918513
Si 6.381963377644856 0.8424288229699957 27.242025368619394
Si 20.29326093791556 7.257976754174578 3.7445766584770155
Si 21.98069830052252 2.6796507628361166 4.488974454088749
Si 12.324767601360486 26.85396777106874 5.459254124252996
Si 8.148156144754626 17.605856322516924 31.356999872771006
Si 10.057361325479391 23.528658897874514 34.35798862244729
Si 7.024095538081823 7.878301244230341 13.328758791874055
Si 19.617453428035006 22.215386367427453 20.257327177614147
Si 30.885333360094698 31.206589241455177 34.94820033607963
Si 13.939226761925095 18.85008206980802 0.1297660963508569
Si 11.466332578938797 16.087305751672577 26.14269125639921
Si 24.346902209389725 19.665892317127724 15.527279643077184
Si 23.44075151945774 34.222064053993165 8.89454296154623
Si 33.49111385105185 3.255361493698242 23.194977349545393
Si 1.4074139005926276 9.59164949669824 9.655782980382282
Si 10.14657225419911 27.87268934643894 29.5858237520254
Si 9.130448709673615 24.879734596655 27.282540157978904
Si 4.176857571963855 32.67942984841645 31.75396522515576
Si 23.704395421296482 9.611700345555223 4.8969668313661865
Si 1.6672145315154046 32.16658685291414 24.65189640272116
Si 3.305886627493171 18.037496063741273 15.06122944281178
Si 29.70429965207426 28.134206748657782 25.906016022799466
Si 20.656562777097935 23.433767902106474 12.017792692986717
Si 13.64067989722432 27.01123558525087 0.29456715687846463
Si 13.559944570215027 19.1934352271601 8.457065973724132
Si 20.25330993539278 1.2353911294492312 5.99677685743767
Si 1.921473238772174 25.008532062419732 30.726612827548646
Si 28.17441533164615 26.770601729867657 2.1392320778780722
Si 4.480677959976851 21.17087848088563 1.2923506361156705
Si 23.40461780369928 33.15159880929207 27.86945114020099
Si 18.457701457641914 23.944985099652108 4.753288616969862
Si 4.621084166905797 30.900736949315178 13.502669549950314
Si 11.048309528338757 16.747466473276496 22.12499254179601
Si 13.24606331377496 24.34998060193657 27.46699044132789
Si 24.94248094648368 21.11535936256532 9.078846593646814
Si 26.65909665651603 22.180699606265698 24.03858835205464
Si 12.040861161744228 16.804187441111665 32.81423666263355
Si 18.382148163395826 32.542711454773666 4.774876847665438
Si 7.523826452986146 19.889264954594836 30.24793370652235
Si 14.292081951937003 5.797261207731512 13.492753580808023
Si 10.34351704655449 24.147998573398617 25.751476641924807
Si 25.782927811466163 6.780316591280366 27.06580263673854
Si 24.043943506415914 4.923664062501996 26.094573707266484
Si 22.24998219423988 26.466905217141615 14.657715353101198
Si 14.525541254918373 18.65957112907154 31.739353675143136
Si 10.011309355581119 21.368229438200427 8.222304426684095
Si 16.100464311067658 18.87318593404023 17.043198383369106
Si 17.880814159257625 26.775740954706798 4.764529206748018
Si 25.53750351029099 1.7975687515093997 8.402927691539704
Si 17.54150935090834 10.012113454376992 29.540979452993614
Si 2.6126634964093935 13.257746588042762 30.821777808075538
Si 4.970045579290743 29.800893738994073 3.2416331091009027
Si 28.707752526920228 7.1125553454734085 20.917404345156186
Si 29.71751585796917 27.485242257766775 28.002792269055746
Si 27.00873605628106 24.71288858485111 21.13601955666639
Si 28.294768587743544 9.788152546057889 3.2197667221639223
Si 21.84508056548489 21.628569456168112 13.900146419552641
Si 26.69942088901947 10.50373766476584 0.6705253320045101
Si 32.27008945633341 14.871402846755313 20.936826881300778
Si 25.71492842577585 10.519217766211037 31.972814566386976
Si 22.135064085288953 23.70059526051025 4.541578859606714
Si 21.304847868121794 24.575479951211566 11.860155491289083
Si 32.755288424731994 17.075289695869802 28.268617009660613
Si 1.003374125399681 25.000531574585025 17.60799215754125
Si 27.528689630802948 19.806147719919505 10.13689264180628
Si 14.793769675324498 31.76512329190362 14.911779441164327
Si 32.77400245641155 3.074813461258388 29.25678097756275
Si 12.29138796235937 16.092003920851067 16.87170586228166
Si 25.66906259366896 30.433445365240743 24.986807962911747
Si 30.753684516004128 13.10816794727118 9.085861320750611
Si 21.394751901398095 20.481321949472235 11.391277579866763
Si 23.86595238560868 34.091103313547315 28.11071604629381
Si 0.16822841676667885 25.762708481345722 7.292120686626008
Si 15.693779924577589 27.8026059090466 30.831936613165425
Si 25.22411470092339 5.399955294585735 10.431877965786187
Si 5.769921782466478 9.30776054064717 27.80544332292659
Si 7.991927875899933 22.81154120719996 10.478966063602304
Si 2.8406750827690286 32.04032493213907 18.206394198804645
Si 23.36754444671734 15.926149032228825 28.73312732733169
Si 7.029079068975099 4.1941567522784275 20.893052064916454
Si 18.568291834826304 22.928346215809334 19.594587132447703
Si 11.568709053563719 9.938294334102638 31.386264178956775
Si 34.940396743299864 5.973964007302442 11.555605195631635
Si 24.860947317272633 8.872205020852688 33.98071967937784
Si 17.96285730441909 16.955046137990916 25.95949067752323
Si 3.1229231686397037 7.224756815798882 11.45440211046237
Si 10.235182971124496 8.93572447797045 15.094686455988345
Si 31.86028245515621 33.59662997997008 12.169182891434888
Si 19.68417940602788 15.86966628730775 28.55148491064383
Si 32.42589155981107 23.268457907765384 16.666665292727014
Si 20.799473649307636 33.250898107760584 26.51011198463567
Si 1.7067127844072658 23.05936214709387 9.532683527579396
Si 33.879021652876695 22.89182530200031 23.34817585982607
Si 11.610506327418701 19.18007890005168 13.396277582530754
Si 29.64098466098569 26.668769292676593 5.88252714025716
Si 13.216891351034743 28.133479477102384 17.307868536585662
Si 32.61374725624545 27.500269025149823 20.354250726215405
Si 16.781916870215476 0.2964127485319669 1.6230583563858465
Si 10.770462841075407 23.684739671509504 13.695200702743058
Si 33.24727490166412 0.3992095209667747 3.5730420940566714
Si 22.330591970841436 20.446045860308534 21.920360342923054
Si 9.383631699587403 15.562134072291393 15.876035675971222
Si 9.853869496681494 8.434204391618694 19.05737751811178
Si 23.42213096049541 25.44737240559722 21.289821657891174
Si 31.16091510079754 4.334993010557251 12.563699435086637
Si 7.2057789295530785 0.6635431733957199 23.59687305866858
Si 0.47551995196081903 30.967095654729782 23.057069280285308
Si 34.9035032719134 4.073679360430687 8.541858660969405
Si 1.1630072483570233 8.996751436797114 18.439874987649436
Si 33.109388780008516 4.606831868702804 22.98292005461618
Si 28.709806049151943 28.754374631201387 2.9979174746791397
Si 11.867062767127168 28.50034042635701 26.192098249192618
Si 14.727896594184562 8.076200934039305 13.511911130685842
Si 20.05808581563957 19.738441895813693 22.078146745325622
Si 17.175583323275276 2.5035675117304192 22.484940896035244
Si 27.534969471393214 8.423177146547458 2.5472589625234647
Si 24.974748275556795 14.847273424170293 3.0598552409379702
Si 9.756514217327046 0.6611580319876755 17.710801383992706
Si 14.995906415046106 15.25988180286487 16.276490558863717
Si 28.931232352657858 9.369728951433169 31.189795037741916
Si 4.870928900388168 2.2509354043789567 1.9090498503898945
Si 19.94004887642845 27.30407113571315 18.85731575583386
Si 1.0233875466410594 22.01032320036667 4.686926531913186
Si 22.42154618258846 6.948322762781238 12.785663324889581
Si 34.59782951214654 10.014248171396751 13.657515332762921
Si 14.864753212332724 4.2324153975659335 5.331635562299979
Si 18.650749786468538 8.422321781064108 24.45509671054906
Si 12.750421839609194 26.943397037405823 30.655117388637702
Si 34.252514574040525 15.568941006697948 14.154479388868364
Si 17.486555810069518 4.145423410397601 27.659374465194226
Si 9.486169652782449 27.449578830881286 30.26616935457104
Si 20.790838995127555 8.666668066455067 9.108471171622265
Si 34.45224305859363 22.682692325032264 1.6923940731230787
Si 14.464109871076781 9.162241365209924 23.32214659558643
Si 0.7622805909556384 0.42844915105425374 18.843814081245664
Si 10.396992913147338 5.169522514049944 29.90741715928129
Si 23.92779976245287 29.74374135251361 28.81920239691679
Si 27.980026994789824 2.1473752860033617 9.912393078937598
Si 17.61926851562742 22.687150159996275 1.9391488173748683
Si 31.291100327228676 27.844320937199065 8.434714512439893
Si 27.968484367001096 4.828764147426839 30.981796454474807
Si 16.295061027010263 21.063364433932918 18.285844598096244
Si 33.386803645276906 19.148741168698674 27.098837244023134
Si 20.252099581953466 13.408105515607257 31.04023753620778
Si 28.41988858490601 4.818494126516126 12.271715904755562
Si 27.80566557632437 23.5621763389871 8.851247252434836
Si 34.38841917955847 6.942075227806017 28.222946737930414
Si 2.3361263659864986 22.890792632058215 19.17553801170003
Si 9.733002703298155 18.93686537722731 33.26330247006863
Si 10.897794880632128 5.402640675497721 4.840543977769253
Si 35.036656794813126 9.65792026125097 15.236467847852378
Si 19.184028127663602 9.767391175972636 15.356782251543951
Si 11.415226878645216 23.952726578447997 5.38498315022637
Si 26.019649551429886 29.470021274227594 25.59096977998754
Si 1.578687781117744 5.259326605164886 32.88883340805575
Si 26.38266086533816 5.737008234196907 17.421238691616622
Si 6.305931563015738 4.021131064460222 32.89102820851088
Si 2.2736880108844106 15.488395832674406 22.83357186936364
Si 31.32663052576777 31.839468761362365 19.88774491511854
Si 20.254556794505138 5.331359351740644 12.315416451396464
Si 13.05405849633507 21.800663658731995 19.804940825207733
Si 30.057636187745132 5.764074806268222 20.358692874739997
Si 3.756833957650309 34.29127495468475 19.28123042825564
Si 8.552606181535493 6.756663615846099 11.88967790686242
Si 21.437308096874208 10.178675245059345 21.969228119140546
Si 3.811904667832164 34.867678103571166 10.168167609570977
Si 22.20258347146165 31.231024015743913 9.940895831200276
Si 27.95052354107387 11.184814675286777 6.682658538541284
Si 8.114763647569559 14.38108576565695 19.87994485943531
Si 28.189463041741053 13.27498349460864 32.42086553442414
Si 8.895038155800927 22.629215020252452 9.42230616105131
Si 11.724280747325068 7.978289624969007 0.5959133097942518
Si 0.30940401627353703 28.235707764570105 17.746760150067583
Si 28.92242626578157 6.34351187563058 3.861902408810085
Si 11.986246292390167 8.015275841727604 24.018181865288096
Si 25.36616124689861 23.816637021103404 11.865799901574615
Si 21.43421286603778 25.82777298926244 25.058221127004177
Si 9.02396245210129 5.043398618534133 9.47395724467654
Si 33.43553205370337 9.467835020540328 16.100208079723686
Si 21.590323435821173 7.9700806365941474 33.43068745810541
Si 13.383786752377242 2.5042592221199844 32.49024014111728
Si 31.477308606425684 14.688230690803401 17.69696886521506
Si 19.463830333086886 10.526668841246162 23.658137017478307
Si 4.223045863631198 7.36844182447726 34.09813294135125
Si 15.05263346763747 22.941870194707544 29.073533923370004
Si 2.9571011372755915 22.043330553077457 17.29563894965821
Si 34.907516092936135 6.788974870079041 1.864708755441837
Si 14.456417097595969 33.87426347131552 8.892503153999147
Si 25.25716956556602 20.106643774819148 5.41012590522402
Si 15.868156432839688 4.032281309903275 8.855012380404176
Si 1.68541995626362 15.288592585886416 18.627515788826216
Si 3.309463688436016 31.79264997255009 18.653244561441404
Si 6.564211026850875 0.25285141940464234 15.244739727311444
Si 33.31573714524796 26.8263610709482 8.39639075451691
Si 2.5901689223136795 0.33102861752534596 6.0214511875620795
Si 10.39916509542757 7.169788791408465 28.35738823499557
Si 24.07998971498971 11.280946441629764 6.708160344667364
Si 7.985796497178503 11.466809291231517 9.161791444515083
Si 25.508139780023345 25.72645376859581 27.81013092345078
Si 7.855663321113669 15.663621190100802 5.853212504021163
Si 7.113587046503077 19.455114046261556 26.336740586335623
Si 12.959789943327475 4.970895359672086 15.858146626109146
Si 6.387069518992806 16.009493304329002 17.109067460479075
Si 33.53996894773533 6.5216229731371165 14.86912803678976
Si 6.77645385091668 3.7824859376596587 12.808116212791044
Si 4.8172040002143035 32.62573312262697 30.76849342431126
Si 19.7867112235129 8.367691071756497 10.662027098173354
Si 31.849424362551783 2.1774017064322035 9.423816846675633
Si 0.9434861168894937 5.300906390177316 2.500268508302103
Si 3.2500833396406583 12.391236613942288 3.8399763683240336
Si 18.08954401415084 7.634796335818448 4.240426425676235
Si 24.1942003815881 2.345033696741447 9.947377775504515
Si 19.15138581768708 8.284637628561345 29.50040608615327
Si 29.149316281270902 9.634379769580507 24.782392429212592
Si 0.3052636101463735 7.743250332811926 18.41843792089394
Si 1.0325581097618663 17.751463242783366 26.729835696235753